          45
Energy of minimum      1=     0.000000000     first found at step       58 after                19519 function calls
HH31       -2.7958749515       -2.5952609373       -3.1617024780
CH3        -2.3553734829       -1.6074586870       -3.0298850959
HH32       -2.8767225384       -0.8909619190       -3.6642361483
HH33       -1.3034996188       -1.6428598832       -3.3117834832
C          -2.4752980648       -1.1926783084       -1.5756110909
O          -3.0840753827       -0.1713367254       -1.2600162351
N          -1.8756218687       -1.9717779372       -0.6777439218
H          -1.3653378498       -2.7841195874       -1.0007699408
CA         -1.9194014880       -1.7495873300        0.7804442527
HA         -2.9577173372       -1.5920989268        1.0770366176
CB         -1.4227026589       -3.0116275014        1.5062475493
HB2        -2.1205518604       -3.8266036126        1.3037427276
HB3        -1.4164376808       -2.8285420945        2.5826478260
OG         -0.1179257552       -3.3969648598        1.0748200831
HG          0.1535279851       -4.2070896206        1.5603602046
C          -1.1390089584       -0.5051920100        1.2564223742
O          -1.3319274103       -0.0418202245        2.3847698486
N          -0.3024535386        0.0851609808        0.3911314418
H          -0.1715021188       -0.3630088738       -0.5056591692
CA          0.4140199751        1.3478835264        0.6389335887
HA          0.6921760096        1.3948259273        1.6933598205
CB          1.7107046384        1.3588870567       -0.1962099670
HB2         2.2092054863        2.3200571425       -0.0571638553
HB3         1.4615125619        1.2548603029       -1.2541874564
CG          2.6900723026        0.2452131390        0.2127286677
HG2         2.9193423094        0.3420522300        1.2751790161
HG3         2.2337024840       -0.7302392408        0.0385381787
CD          3.9922832225        0.3349261486       -0.5940254254
HD2         3.7637203723        0.2392421630       -1.6575117846
HD3         4.4600740368        1.3054945081       -0.4163663071
CE          4.9522676659       -0.7854337856       -0.1696085757
HE2         5.1531984506       -0.6905282801        0.9019177561
HE3         4.4627382574       -1.7503128067       -0.3337035741
NZ          6.2312897450       -0.7345030282       -0.9276847910
HZ1         6.7113261627        0.1422848170       -0.7770290976
HZ2         6.0727173001       -0.8381940216       -1.9206424453
HZ3         6.8524406040       -1.4776915014       -0.6372373520
C          -0.4435336473        2.6086866450        0.3688601011
O          -0.0123466001        3.7249039932        0.6786410262
N          -1.6491207318        2.4501634738       -0.1946020386
H          -1.9361710535        1.5049288906       -0.4160556319
CH3        -2.5777363963        3.5314691380       -0.5113304366
HH31       -2.1139829200        4.2291867690       -1.2108241475
HH32       -3.4799789943        3.1203789359       -0.9668618857
HH33       -2.8526762021        4.0663608557        0.3994117340
          45
Energy of minimum      2=    0.5435495577E-01 first found at step       53 after                17731 function calls
HH31        1.4855606976        1.4724332867       -3.3939057075
CH3         2.4916463683        1.1871832977       -3.0879828914
HH32        2.8445860069        0.3715728246       -3.7186791078
HH33        3.1566662309        2.0432886579       -3.1974936325
C           2.4726731869        0.7465114473       -1.6364500791
O           2.8221038551       -0.3897679157       -1.3199973849
N           2.0474917150        1.6396047880       -0.7444396021
H           1.8166134069        2.5691370327       -1.0709187161
CA          2.0657201219        1.4348301857        0.7181042358
HA          3.0771700746        1.1600860013        1.0203571837
CB          1.7074033140        2.7505675703        1.4298561344
HB2         0.6674125070        3.0009670013        1.2096373972
HB3         1.8075113473        2.6101150975        2.5081206608
OG          2.5510276188        3.8231161258        1.0124677960
HG          2.3027955438        4.6372001662        1.5044871970
C           1.1303379645        0.3133420177        1.2190868820
O           1.2762716256       -0.1606044463        2.3492678065
N           0.1918736919       -0.1502805457        0.3815870791
H           0.1164910561        0.2914697692       -0.5253928258
CA         -0.7046178930       -1.2836576174        0.6681217515
HA         -0.9645230696       -1.2695060223        1.7282150247
CB         -2.0048933727       -1.1094807205       -0.1426070456
HB2        -2.6402220383       -1.9817977104        0.0221324062
HB3        -1.7648550491       -1.0597779324       -1.2066233812
CG         -2.7957470969        0.1453818242        0.2650574434
HG2        -2.2005788378        1.0377203700        0.0660690279
HG3        -3.0151050516        0.0993395591        1.3329903864
CD         -4.1129107112        0.2422651425       -0.5162984617
HD2        -3.8943607002        0.2879752677       -1.5852140819
HD3        -4.7174817894       -0.6443800820       -0.3143698891
CE         -4.8853222245        1.4998166298       -0.0931827190
HE2        -4.2606442564        2.3781350166       -0.2826957285
HE3        -5.0758938295        1.4510883600        0.9833444709
NZ         -6.1731493813        1.6305324333       -0.8264401265
HZ1        -6.6699850343        2.4624160535       -0.5372153719
HZ2        -6.0216613214        1.6953264901       -1.8237984672
HZ3        -6.7756865989        0.8378014776       -0.6520246662
C          -0.0583810880       -2.6664891666        0.4081237046
O          -0.6455633100       -3.6959636575        0.7591268266
N           1.1393320505       -2.7078873094       -0.1911421718
H           1.5608078056       -1.8229588921       -0.4480631345
CH3         1.8815515530       -3.9259596733       -0.5026968452
HH31        1.2956096810       -4.5599554246       -1.1704348058
HH32        2.0990957782       -4.4757045143        0.4146860465
HH33        2.8217079488       -3.6686256592       -0.9929974854
          45
Energy of minimum      3=    0.7110607618     first found at step       18 after                 6265 function calls
HH31        2.6431812744        2.2036119645       -3.3974441634
CH3         2.0162631925        1.3342769130       -3.2014585017
HH32        2.2277631224        0.5614780168       -3.9401273387
HH33        0.9683191849        1.6244532123       -3.2703963297
C           2.3049061702        0.8093611189       -1.8077384212
O           2.7059950497       -0.3411939973       -1.6384958611
N           2.0820810069        1.6433888958       -0.7940806341
H           1.7250577389        2.5692267531       -0.9941344144
CA          2.3453250116        1.3231733609        0.6221652234
HA          3.3552360335        0.9181080448        0.7050297237
CB          2.3006426515        2.6147880703        1.4564171576
HB2         2.4530599264        2.3684746777        2.5091761424
HB3         3.1185782682        3.2636711327        1.1368593264
OG          1.0644612727        3.3102748754        1.2976991066
HG          1.0838176053        4.1265804921        1.8445469237
C           1.4004761995        0.2573353092        1.2181718611
O           1.6893610959       -0.3104940627        2.2760905879
N           0.3016921539       -0.0721297411        0.5243611685
H           0.1123793155        0.4518781807       -0.3192916813
CA         -0.6292570069       -1.1551717413        0.8846965678
HA         -0.7009971927       -1.2111084542        1.9724240726
CB         -2.0290073269       -0.8156982309        0.3325119129
HB2        -2.7039025852       -1.6439148035        0.5567479238
HB3        -1.9682574221       -0.7076919159       -0.7517150667
CG         -2.6141536276        0.4653816940        0.9566360301
HG2        -2.5847326997        0.3701463849        2.0430868124
HG3        -2.0070376645        1.3263927586        0.6735868828
CD         -4.0693838366        0.7262638895        0.5379322979
HD2        -4.4313017169        1.5957315750        1.0902065867
HD3        -4.6814002852       -0.1342083462        0.8158706659
CE         -4.2029105013        0.9951993674       -0.9694876269
HE2        -3.8598058330        0.1148457887       -1.5210110171
HE3        -3.5521391015        1.8336395512       -1.2364746953
NZ         -5.6067201418        1.3076099524       -1.3513355010
HZ1        -5.6806705911        1.4825419277       -2.3446326180
HZ2        -6.2264783868        0.5406288822       -1.1283203924
HZ3        -5.9424694228        2.1308184119       -0.8700153465
C          -0.1599109694       -2.5551900740        0.4181233072
O          -0.7766953260       -3.5636450025        0.7790888096
N           0.9212371852       -2.6344866202       -0.3698022308
H           1.3769742173       -1.7657403931       -0.6198663531
CH3         1.4917914798       -3.8729044293       -0.8920394730
HH31        0.7536221392       -4.3959689140       -1.5025143966
HH32        1.7985370941       -4.5193960677       -0.0679552322
HH33        2.3636151057       -3.6457849443       -1.5075807354
          45
Energy of minimum      4=    0.7508105165     first found at step       19 after                 6598 function calls
HH31       -1.1891236038       -1.6235018033       -3.2798081339
CH3        -2.1319451928       -1.0835708184       -3.1978729264
HH32       -2.1650755256       -0.2959782980       -3.9503167134
HH33       -2.9575102241       -1.7755319339       -3.3615823636
C          -2.2491821259       -0.4786162459       -1.8116009495
O          -2.3595815055        0.7376628355       -1.6639433851
N          -2.2091008972       -1.3242388590       -0.7833118652
H          -2.1602797620       -2.3154921776       -0.9807900804
CA         -2.4226701710       -0.9378283357        0.6260614900
HA         -3.3736021217       -0.4090869894        0.7036729220
CB         -2.5179820195       -2.1998794709        1.5002825561
HB2        -2.7611118996       -1.9060182090        2.5234815474
HB3        -1.5475598163       -2.7009021100        1.5065790779
OG         -3.5131549367       -3.1018710757        1.0182849798
HG         -3.5553453645       -3.8821751540        1.6147659211
C          -1.3417201228        0.0012322621        1.2033056902
O          -1.5571858047        0.6353018046        2.2400038363
N          -0.1912400447        0.1337425871        0.5279810928
H          -0.0736217571       -0.4249579315       -0.3071230281
CA          0.8923137175        1.0644952675        0.8887989987
HA          0.9518496510        1.1322947098        1.9766612417
CB          2.2308709911        0.4969009965        0.3740877182
HB2         2.1738264423        0.3751635223       -0.7088822051
HB3         3.0234561460        1.2138653948        0.5966095206
CG          2.5956090088       -0.8453906989        1.0358878661
HG2         1.8664035042       -1.6068560259        0.7558157089
HG3         2.5604298630       -0.7222167126        2.1193451473
CD          3.9998225564       -1.3399081610        0.6553746782
HD2         4.2098129903       -2.2432832807        1.2314111253
HD3         4.7336476783       -0.5801004236        0.9318565189
CE          4.1198094489       -1.6584593419       -0.8435320107
HE2         3.3513315570       -2.3904939551       -1.1106543002
HE3         3.9299997858       -0.7472431321       -1.4185194883
NZ          5.4648110482       -2.1942549745       -1.1870741613
HZ1         5.6578214240       -3.0493697975       -0.6834903522
HZ2         6.1923853191       -1.5288721150       -0.9634715079
HZ3         5.5304521829       -2.3996533173       -2.1751103664
C           0.6606227081        2.5107732676        0.3867369702
O           1.4169518648        3.4175933525        0.7518649360
N          -0.3720560864        2.7424443340       -0.4349643002
H          -0.9503602952        1.9500631391       -0.6888626031
CH3        -0.7273352191        4.0445522883       -0.9917687504
HH31       -0.9526126902        4.7461487312       -0.1866873791
HH32       -1.6062283257        3.9441205859       -1.6304983179
HH33        0.1002614729        4.4348928121       -1.5866404679
          45
Energy of minimum      5=    0.7662027934     first found at step      225 after                77880 function calls
HH31       -4.1465542269       -0.1697700626       -2.6646536273
CH3        -3.4892081714       -0.9992307405       -2.4049332833
HH32       -2.6924761857       -1.0752895977       -3.1442600647
HH33       -4.0617786169       -1.9261923543       -2.3972524634
C          -2.8849123039       -0.7690728083       -1.0326189206
O          -3.1586205491        0.2414692283       -0.3867602373
N          -2.0434893803       -1.6992187953       -0.5844884507
H          -1.8982694496       -2.5252237102       -1.1507076872
CA         -1.4486692897       -1.7074349910        0.7673483422
HA         -2.2510573008       -1.6370880612        1.5029435991
CB         -0.7159329546       -3.0394489161        1.0023391399
HB2        -0.3544653886       -3.0696450241        2.0323120474
HB3         0.1450850325       -3.0934705584        0.3326222784
OG         -1.5688196225       -4.1591756712        0.7678136457
HG         -1.0698183935       -4.9867656238        0.9480263609
C          -0.4822029928       -0.5367403184        1.0486192619
O          -0.1574774496       -0.2617978977        2.2069466070
N          -0.0425303467        0.1854957795        0.0084321059
H          -0.3355933355       -0.1023851448       -0.9163265612
CA          0.7942381451        1.3928399899        0.1152790373
HA          1.4598265837        1.2889680698        0.9730903054
CB          1.6565261055        1.5172980291       -1.1594789117
HB2         2.2908078978        2.4011024055       -1.0694517325
HB3         0.9961620254        1.6752331919       -2.0143144634
CG          2.5624084675        0.3101494102       -1.4693205803
HG2         3.1040346569        0.5262303060       -2.3915331707
HG3         1.9487593646       -0.5745963506       -1.6442151187
CD          3.5821635809        0.0083626333       -0.3604534863
HD2         3.0581029948       -0.2978942980        0.5465141389
HD3         4.1643837565        0.9085823787       -0.1529792358
CE          4.5213923847       -1.1209332608       -0.8080915676
HE2         3.9238069909       -2.0109881805       -1.0281174244
HE3         5.0212857047       -0.8175725298       -1.7332049479
NZ          5.5382334631       -1.4404994039        0.2301079201
HZ1         6.1159530927       -0.6368728273        0.4363221306
HZ2         6.1489972513       -2.1842394862       -0.0806210995
HZ3         5.1020864296       -1.7421193908        1.0907850113
C          -0.0148346784        2.6872241248        0.3744902141
O           0.5775194797        3.7437317212        0.6202994972
N          -1.3524021612        2.6224869184        0.3316891048
H          -1.7676739194        1.7212775420        0.1262415430
CH3        -2.2557158144        3.7474967917        0.5557226007
HH31       -3.2899472014        3.4143273009        0.4562982945
HH32       -2.1082344591        4.1509273590        1.5590353662
HH33       -2.0642091813        4.5322660872       -0.1781906864
          45
Energy of minimum      6=    0.8122233135     first found at step      223 after                77174 function calls
HH31       -3.1431611759       -2.0561045048       -3.1899470113
CH3        -2.4877404769       -1.1929793320       -3.0778420571
HH32       -2.8481640082       -0.3802788445       -3.7080567159
HH33       -1.4779698255       -1.4668890390       -3.3819490841
C          -2.4765528805       -0.7544344078       -1.6257338909
O          -2.8380686765        0.3776433676       -1.3080152902
N          -2.0436894073       -1.6444867437       -0.7342355860
H          -1.7954831681       -2.5693625760       -1.0625539110
CA         -2.0587820202       -1.4397006463        0.7281178504
HA         -3.0692239631       -1.1637679083        1.0334540176
CB         -1.6898996215       -2.7557848217        1.4366183315
HB2        -0.6405385270       -2.9783256917        1.2332508722
HB3        -1.8068449432       -2.6306970194        2.5151299090
OG         -2.4849622839       -3.8565661824        0.9941510372
HG         -3.4043001313       -3.7503995256        1.3252888938
C          -1.1238599907       -0.3156281167        1.2248965953
O          -1.2644851429        0.1562487505        2.3565654283
N          -0.1919682276        0.1518882829        0.3822246871
H          -0.1201995532       -0.2892916180       -0.5253596344
CA          0.7031851647        1.2874948211        0.6642075947
HA          0.9639439260        1.2776341712        1.7241434070
CB          2.0031717795        1.1119013997       -0.1467113723
HB2         1.7625804349        1.0584970359       -1.2104212911
HB3         2.6378620177        1.9852770087        0.0148379564
CG          2.7952640596       -0.1410028235        0.2646230789
HG2         3.0152505472       -0.0912411841        1.3322595622
HG3         2.2006504281       -1.0344583193        0.0690051783
CD          4.1120050520       -0.2396391416       -0.5172071568
HD2         4.7161968102        0.6479932861       -0.3185121113
HD3         3.8928399301       -0.2889586392       -1.5858357224
CE          4.8853069091       -1.4954106406       -0.0904320417
HE2         5.0765661490       -1.4430213923        0.9858013644
HE3         4.2609174459       -2.3746515563       -0.2766027737
NZ          6.1727036640       -1.6279735717       -0.8241080193
HZ1         6.0205777858       -1.6961733597       -1.8211417169
HZ2         6.7749888036       -0.8343883287       -0.6527389922
HZ3         6.6701110404       -2.4586617316       -0.5324383825
C           0.0547207207        2.6684336952        0.3996934056
O           0.6419712666        3.7002015668        0.7437613593
N          -1.1450095102        2.7057085003       -0.1958702658
H          -1.5665701619        1.8192041162       -0.4468275061
CH3        -1.8893026988        3.9215850727       -0.5111564562
HH31       -2.8308156332        3.6610345173       -0.9971414564
HH32       -2.1043689722        4.4757652801        0.4041421908
HH33       -1.3060569296        4.5527231577       -1.1839471631
          45
Energy of minimum      7=    0.8142207930     first found at step      166 after                56664 function calls
HH31       -3.5340445680       -1.4170890895       -3.3291051619
CH3        -2.7568314945       -0.6783495397       -3.1357783526
HH32       -2.9446019126        0.2106539817       -3.7374307225
HH33       -1.7876550426       -1.0985746580       -3.4027426441
C          -2.7621230823       -0.3156602330       -1.6627618046
O          -2.9489577542        0.8450310226       -1.3004680920
N          -2.5349764565       -1.3042512571       -0.8002929822
H          -2.3595245583       -2.2340464672       -1.1599311092
CA         -2.5427769783       -1.1485430545        0.6671134499
HA         -3.4534905519       -0.6211686878        0.9558133326
CB         -2.5882611356       -2.5361143818        1.3296024900
HB2        -2.5507931306       -2.4181361745        2.4144444914
HB3        -3.5357023358       -3.0136854345        1.0717749786
OG         -1.5132218136       -3.3695631863        0.8975251402
HG         -1.5861972394       -4.2427829471        1.3424628905
C          -1.3660326771       -0.3178631900        1.2233146427
O          -1.4085215945        0.1322732061        2.3725219111
N          -0.3381285462       -0.0513295393        0.4050760736
H          -0.3548062051       -0.4748539969       -0.5128649412
CA          0.7940715650        0.8314724283        0.7337910606
HA          1.0345352141        0.7176316997        1.7924186349
CB          2.0261722673        0.3920260509       -0.0842921029
HB2         2.8359360155        1.0969687436        0.1080951348
HB3         1.7859391531        0.4306783212       -1.1487467743
CG          2.5076200552       -1.0248417936        0.2827465700
HG2         2.7617486613       -1.0560853166        1.3433825154
HG3         1.7012059622       -1.7373831012        0.1056971032
CD          3.7240154835       -1.4788540678       -0.5393891806
HD2         3.4788014203       -1.4213476164       -1.6018313136
HD3         3.9297626765       -2.5222010294       -0.2922432517
CE          4.9766947610       -0.6372290709       -0.2472078415
HE2         5.1801953725       -0.6704836701        0.8275987352
HE3         4.7794633087        0.4038300525       -0.5192569552
NZ          6.1617663988       -1.1330273537       -0.9980162364
HZ1         6.0043737081       -1.0978448899       -1.9960226999
HZ2         6.3793229063       -2.0884105985       -0.7491531346
HZ3         6.9780014706       -0.5710715986       -0.7964016869
C           0.4845172777        2.3348218180        0.5274054575
O           1.2932737874        3.1880691789        0.9089605729
N          -0.6711924423        2.6723578879       -0.0611818728
H          -1.2851857502        1.9182030477       -0.3426303868
CH3        -1.1122470900        4.0389000543       -0.3256446406
HH31       -1.1974060567        4.5917929073        0.6114870585
HH32       -2.0862093214        4.0228037592       -0.8172644111
HH33       -0.3954724276        4.5435201667       -0.9758473891
          45
Energy of minimum      8=    0.8386460498     first found at step       31 after                10797 function calls
HH31        1.8849359481        1.0173127171       -3.4594712869
CH3         2.7551010201        0.4357486833       -3.1565449443
HH32        2.8123417479       -0.4709460156       -3.7583669820
HH33        3.6554309125        1.0297926545       -3.3104246782
C           2.6350605018        0.0741608205       -1.6880896878
O           2.6118222906       -1.1026898751       -1.3304909246
N           2.5410384688        1.0862697486       -0.8273569680
H           2.6100219221        2.0291010533       -1.1882393394
CA          2.5313669151        0.9365922441        0.6419263014
HA          3.4101121102        0.3637631138        0.9411546894
CB          2.6294608672        2.3214501795        1.3042582911
HB2         1.7180654343        2.8831128353        1.0881959438
HB3         2.7074955977        2.1934519220        2.3858905883
OG          3.7596855077        3.0535054201        0.8320569390
HG          3.7959086008        3.9210136263        1.2931118197
C           1.3007904340        0.1905488401        1.2011055796
O           1.3180766515       -0.2676618893        2.3469613759
N           0.2413150191        0.0242961104        0.3967932627
H           0.2864143648        0.4373148871       -0.5256253488
CA         -0.9630182532       -0.7506911260        0.7422253474
HA         -1.1759578770       -0.6180809107        1.8046290536
CB         -2.1611551826       -0.1962575436       -0.0558327434
HB2        -1.9409843997       -0.2519353150       -1.1238582828
HB3        -3.0293974989       -0.8247670237        0.1462570229
CG         -2.5050170260        1.2569337452        0.3232581511
HG2        -2.7408060548        1.3060024380        1.3874390379
HG3        -1.6387568533        1.8929796115        0.1378353880
CD         -3.6854827491        1.8250211401       -0.4801559353
HD2        -3.4608397626        1.7508606617       -1.5461243682
HD3        -3.7913221267        2.8815385827       -0.2260080330
CE         -5.0061083348        1.1002722627       -0.1741462645
HE2        -5.1913909110        1.1463819144        0.9034817679
HE3        -4.9088751960        0.0469542860       -0.4530631807
NZ         -6.1505866539        1.7065697553       -0.9066093246
HZ1        -7.0121785864        1.2207576074       -0.6960652457
HZ2        -6.0103869450        1.6623553699       -1.9068174119
HZ3        -6.2762573162        2.6765518143       -0.6509499507
C          -0.7994671504       -2.2758054578        0.5295901638
O          -1.6754097003       -3.0502851741        0.9303213681
N           0.3058653238       -2.7191174080       -0.0844386427
H           0.9811744821       -2.0251392898       -0.3829826348
CH3         0.6114094530       -4.1206314771       -0.3566673324
HH31       -0.1637871323       -4.5558462570       -0.9897657012
HH32        0.6660048854       -4.6795937763        0.5791335366
HH33        1.5712312108       -4.1948531054       -0.8702324679
          45
Energy of minimum      9=    0.8868706337     first found at step       91 after                31090 function calls
HH31        1.2603370273        1.7707352258       -3.2487063825
CH3         2.2590279686        1.9522937074       -2.8527362728
HH32        2.9839759738        1.3627181756       -3.4134806719
HH33        2.4981100608        3.0105828156       -2.9529032649
C           2.3001232715        1.5634120068       -1.3870068685
O           3.0676030912        0.6883629879       -0.9889031279
N           1.4570466495        2.1968888361       -0.5741193488
H           0.8298187552        2.8882290728       -0.9656360538
CA          1.3849404266        1.9825533759        0.8841750453
HA          2.3930548297        2.0493514928        1.2965354438
CB          0.5512377358        3.1053718592        1.5246715732
HB2         1.0740770411        4.0528600283        1.3796076962
HB3         0.4675083318        2.9236240391        2.5980328464
OG         -0.7514817219        3.1980627690        0.9482505283
HG         -1.2393571297        3.9345450748        1.3786071809
C           0.8367590363        0.5993236909        1.2958767809
O           1.0055530288        0.1775422989        2.4441781819
N           0.2307681551       -0.1424172338        0.3582645533
H           0.1063125082        0.2770571874       -0.5533476861
CA         -0.2540196654       -1.5197928387        0.5507770368
HA         -0.5682586280       -1.6429233619        1.5887659790
CB         -1.4881155464       -1.7418917506       -0.3476641912
HB2        -1.2136772311       -1.5684414336       -1.3901806883
HB3        -1.8127733294       -2.7794593388       -0.2491315033
CG         -2.6673064156       -0.8293370832        0.0324285643
HG2        -2.9303124009       -1.0023670308        1.0771974512
HG3        -2.3741962013        0.2134487316       -0.0893267905
CD         -3.8923031472       -1.1170998733       -0.8495183627
HD2        -4.1550014597       -2.1717180087       -0.7463802173
HD3        -3.6447990805       -0.9324614311       -1.8968202961
CE         -5.1178578091       -0.2787429140       -0.4489601419
HE2        -5.3133229323       -0.4247806748        0.6177875766
HE3        -5.9857884891       -0.6587503674       -0.9965252394
NZ         -4.9489843950        1.1713849941       -0.7439937370
HZ1        -4.7744506266        1.3262834303       -1.7278518556
HZ2        -5.7845258887        1.6860139925       -0.4986947237
HZ3        -4.1820447529        1.5700893746       -0.2199259375
C           0.8320558981       -2.5963568797        0.3071728033
O           0.5852679588       -3.7851331225        0.5389448411
N           2.0286897651       -2.2008504554       -0.1484622355
H           2.1588721520       -1.2096418642       -0.3075198986
CH3         3.1562111036       -3.0854201566       -0.4282314563
HH31        3.4535401314       -3.6105401651        0.4811667587
HH32        4.0021172936       -2.5000012192       -0.7919364606
HH33        2.8776916153       -3.8162353240       -1.1894889022
          45
Energy of minimum     10=    0.9162201090     first found at step       79 after                26951 function calls
HH31        2.8412710516        2.2768158415       -3.1027492910
CH3         1.8859697700        1.7969943653       -2.8921413286
HH32        1.5088727670        1.3271008926       -3.8002070575
HH33        1.1743211661        2.5480178878       -2.5504922610
C           2.0754030086        0.7509629335       -1.8099356889
O           1.8086188671       -0.4306246263       -2.0245133774
N           2.5212549698        1.1819643865       -0.6309660240
H           2.7625020081        2.1604829718       -0.5388886039
CA          2.8671321762        0.3030667921        0.5046924151
HA          3.5954560007       -0.4353574554        0.1667456045
CB          3.5263979657        1.1319137337        1.6201509085
HB2         2.7874233339        1.8217396355        2.0334251233
HB3         3.8540160079        0.4598353650        2.4160104359
OG          4.6457912975        1.8723456504        1.1355070069
HG          5.0478677971        2.3712183175        1.8811322463
C           1.6734736016       -0.4820379012        1.0897284527
O           1.8663311854       -1.4728348258        1.7997261488
N           0.4350090171       -0.0831391198        0.7667939011
H           0.3477987245        0.7494411230        0.1994848656
CA         -0.8002534275       -0.7963816768        1.1328197675
HA         -0.6903307549       -1.1570240188        2.1572908965
CB         -1.9755610870        0.2031275942        1.1243817047
HB2        -1.7251406740        1.0408423160        1.7783124145
HB3        -2.8497701122       -0.2961167686        1.5446198076
CG         -2.3256653713        0.7450433604       -0.2764549884
HG2        -1.4377508668        1.1970625301       -0.7198067837
HG3        -2.6452096173       -0.0766039023       -0.9188102133
CD         -3.4326885620        1.8104589307       -0.2456973794
HD2        -3.1228470780        2.6292069961        0.4070366137
HD3        -3.5519613119        2.2059151164       -1.2564240836
CE         -4.7781573854        1.2426120217        0.2343771118
HE2        -4.6638237424        0.8680984203        1.2559530094
HE3        -5.0519813006        0.3971357968       -0.4043882752
NZ         -5.8548288610        2.2690320768        0.1972850902
HZ1        -6.7335148810        1.8823926022        0.5153512617
HZ2        -5.6326135809        3.0550542117        0.7930047895