          52
Energy of minimum      1=    -41.72299240     first found at step      570 after               312218 function calls
HH31       -3.6036853330       -2.1164570914       -1.4247449406
CH3        -3.4905125539       -1.1966342716       -1.9973859573
HH32       -4.2800701067       -0.4971078316       -1.7257351054
HH33       -3.5523196628       -1.4193315782       -3.0618612914
C          -2.1474102978       -0.5763083583       -1.6962735530
O          -1.3827474924       -1.1127286714       -0.8963524458
N          -1.8634464447        0.5704695573       -2.3135000301
H          -2.5505828413        0.9450460815       -2.9522723470
CA         -0.5745276834        1.2661119977       -2.2065149593
HA          0.2080566187        0.5948391775       -2.5630530636
CB         -0.6153710659        2.4837819693       -3.1388584045
HB1         0.3484882018        2.9945308692       -3.1170756760
HB2        -1.3933383125        3.1784062594       -2.8175735211
HB3        -0.8180236332        2.1623011667       -4.1615831475
C          -0.2083822182        1.6769252875       -0.7626267499
O           0.9714135216        1.6857154787       -0.4025408777
N          -1.2072504167        1.9518576109        0.0858062456
H          -2.1502836123        1.9420253077       -0.2769484987
CA         -1.0179259089        2.2784394577        1.5035344437
HA         -0.2744546095        3.0741208184        1.5792787250
CB         -2.3484321177        2.8175054178        2.0443730968
HB1        -2.6617567561        3.6857851452        1.4627192652
HB2        -3.1183168636        2.0462054401        1.9869320139
HB3        -2.2252644182        3.1194433025        3.0854600342
C          -0.5062923610        1.0873764252        2.3476530225
O           0.1447986544        1.2973765175        3.3755537827
N          -0.7656299343       -0.1527779572        1.9107914353
H          -1.3149233540       -0.2510502758        1.0666607931
CA         -0.2643735978       -1.3828656597        2.5336727603
HA         -0.0160318199       -1.1849028511        3.5778036225
CB         -1.3954758166       -2.4191742711        2.5175395748
HB1        -1.0647392715       -3.3295169301        3.0194014058
HB2        -1.6723122339       -2.6607280566        1.4902075333
HB3        -2.2668694310       -2.0250160792        3.0424055089
C           1.0146475824       -1.9179606697        1.8531822641
O           1.8962748299       -2.4566947189        2.5292826733
N           1.1392827808       -1.7511002357        0.5301161429
H           0.3496605063       -1.3657739261        0.0250250804
CA          2.2910775365       -2.2064452731       -0.2557998542
HA          2.5576233210       -3.2132124067        0.0711801503
CB          1.8544671614       -2.2904807492       -1.7239529434
HB1         2.6702176584       -2.6930770038       -2.3259389261
HB2         0.9897401106       -2.9490935021       -1.8182412047
HB3         1.5952932965       -1.2987018860       -2.0957442258
C           3.5500812345       -1.3228533504       -0.0907138039
O           4.6734502461       -1.8180666739       -0.2342933979
N           3.3815951493       -0.0296667076        0.2222458749
H           2.4310500963        0.3183319359        0.2739878881
CH3         4.4637137867        0.9303114548        0.4394968002
HH31        5.0779233507        0.6183158988        1.2866707091
HH32        5.0934300495        0.9944586444       -0.4502749826
HH33        4.0484644753        1.9180457649        0.6488790608
          52
Energy of minimum      2=    -39.79992724     first found at step      241 after               134920 function calls
HH31        1.0487597593        2.3395814402       -3.3726298048
CH3         1.1556973503        3.3534965743       -2.9906401572
HH32        2.0320945555        3.8199189607       -3.4386974793
HH33        0.2666176127        3.9307864993       -3.2408478813
C           1.3151850236        3.3092427964       -1.4874324724
O           2.3206913748        3.7839717550       -0.9591563069
N           0.3190818174        2.7453844698       -0.8056879838
H          -0.4607798945        2.3798892393       -1.3327649104
CA          0.2558958297        2.6102852618        0.6544063247
HA          1.2678947081        2.6436510752        1.0625256622
CB         -0.5293105702        3.8050466279        1.2169776106
HB1        -1.5519886423        3.7928950059        0.8364847631
HB2        -0.5539543561        3.7563827296        2.3064144948
HB3        -0.0476909582        4.7379230398        0.9203569086
C          -0.3682557928        1.2657887438        1.0861562900
O          -1.0215799884        0.5871360277        0.2871121927
N          -0.1719262578        0.8829451609        2.3543658255
H           0.3625810724        1.5000099580        2.9501615376
CA         -0.6340036892       -0.3796846349        2.9485657528
HA         -0.0891857093       -0.5092290054        3.8853903526
CB         -2.1186306165       -0.2497818100        3.3351837147
HB1        -2.4498076549       -1.1544706358        3.8475458460
HB2        -2.7333199282       -0.0877944261        2.4484061224
HB3        -2.2475108199        0.5973315327        4.0105245505
C          -0.2608400741       -1.6138102469        2.0907875412
O           0.9270182894       -1.9001555253        1.9158799510
N          -1.2412750537       -2.3219488410        1.5152831243
H          -2.1951837001       -2.0353041244        1.6832490452
CA         -1.0225280609       -3.4909372983        0.6523540598
HA         -0.4135169246       -4.2123162150        1.2003400440
CB         -2.3888193949       -4.1332776851        0.3791380605
HB1        -3.0263693214       -3.4400085027       -0.1720941482
HB2        -2.2560948151       -5.0403755596       -0.2122664259
HB3        -2.8711047599       -4.3976313865        1.3214453672
C          -0.2767837147       -3.1720781316       -0.6673469242
O           0.3190250134       -4.0703539701       -1.2695830169
N          -0.2740795074       -1.9041645953       -1.0997476884
H          -0.8019157212       -1.2239909508       -0.5638187587
CA          0.4641010534       -1.3945292909       -2.2620557066
HA          0.7831502358       -2.2388141584       -2.8750663402
CB         -0.5072454050       -0.5584690845       -3.1080405758
HB1        -0.0138313807       -0.2311251166       -4.0240336403
HB2        -1.3767298497       -1.1602453114       -3.3763418634
HB3        -0.8356837539        0.3170779480       -2.5471627430
C           1.7534813514       -0.6184981199       -1.8877855745
O           2.4134780183       -0.0531082518       -2.7660769164
N           2.1210839483       -0.5737558480       -0.5978117285
H           1.5566285664       -1.0880802028        0.0678797921
CH3         3.2895691074        0.1377262088       -0.0798683166
HH31        3.3188898363        0.0639002047        1.0089816250
HH32        3.2449491159        1.1914654662       -0.3614410398
HH33        4.2040726757       -0.2978977968       -0.4875181555
          52
Energy of minimum      3=    -39.74685871     first found at step      110 after                57779 function calls
HH31        0.9207403916        3.6563838073       -1.5454571285
CH3        -0.1340253191        3.5636577371       -1.2905405348
HH32       -0.6665868029        3.0652854375       -2.0996608127
HH33       -0.5568375555        4.5556078695       -1.1354013715
C          -0.2814189001        2.7535000501       -0.0229895201
O           0.7085568225        2.2428061085        0.5017984882
N          -1.5170715136        2.6327121661        0.4626542134
H          -2.2677061148        3.0769697163       -0.0449209496
CA         -1.8615430574        1.8947866266        1.6829230743
HA         -1.2894884643        2.3232788435        2.5083800129
CB         -3.3513601938        2.1101836991        1.9824110924
HB1        -3.6163475858        1.6133377443        2.9168571508
HB2        -3.9588179101        1.6965322229        1.1756414688
HB3        -3.5603786529        3.1764900261        2.0811874039
C          -1.5058933902        0.3935937362        1.5980674641
O          -1.4688518915       -0.1915590204        0.5110354207
N          -1.2304694068       -0.2293188059        2.7522649863
H          -1.3148483409        0.3068788318        3.6054940428
CA         -0.7709839138       -1.6226321572        2.8802804590
HA         -0.4075031365       -1.7336329210        3.9033598807
CB         -1.9752375270       -2.5687269339        2.7374255422
HB1        -2.7643798621       -2.2715948455        3.4293256101
HB2        -2.3604284474       -2.5359563905        1.7175897950
HB3        -1.6726682226       -3.5903041408        2.9707160162
C           0.4433210047       -1.9743856802        1.9791676918
O           0.5723852486       -3.1034120586        1.4949295532
N           1.3179863816       -0.9879694519        1.7300161743
H           1.1460438288       -0.1013886572        2.1833285367
CA          2.4636420249       -1.0397368041        0.8111107663
HA          2.8318335853       -0.0147366786        0.7408471828
CB          3.5975992141       -1.8584137127        1.4515590872
HB1         4.5064483751       -1.7605063765        0.8566236020
HB2         3.7991449584       -1.4898989639        2.4582487032
HB3         3.3191893458       -2.9114722606        1.5028027871
C           2.1267637052       -1.4326959013       -0.6520452655
O           3.0018510345       -1.8930732607       -1.3931628650
N           0.8748606696       -1.2410455898       -1.0910590508
H           0.1876152852       -0.8770569576       -0.4407811204
CA          0.4098836570       -1.5791126456       -2.4429793760
HA          0.8820636421       -2.5163151886       -2.7430067602
CB         -1.1032164557       -1.8262064632       -2.3782387718
HB1        -1.6236506299       -0.8994707977       -2.1334259060
HB2        -1.3261910821       -2.5782305700       -1.6199653514
HB3        -1.4584120778       -2.1862527902       -3.3445739016
C           0.7733885770       -0.5295206333       -3.5227660321
O           0.6193943619       -0.7976624970       -4.7196740907
N           1.2557949895        0.6572229244       -3.1231480563
H           1.3489534417        0.8054684623       -2.1280028442
CH3         1.6568017065        1.7451326289       -4.0166463043
HH31        0.7783162798        2.1697908010       -4.5067831662
HH32        2.1599062441        2.5307866036       -3.4499040059
HH33        2.3418316794        1.3718831113       -4.7809130204
          52
Energy of minimum      4=    -39.44390506     first found at step      580 after               318008 function calls
HH31       -0.8075885465       -2.6028891036       -3.4318634472
CH3        -0.5740053997       -1.6040587596       -3.7983855220
HH32       -1.1558318098       -1.4001760431       -4.6963638927
HH33        0.4877833912       -1.5399320113       -4.0325415441
C          -0.9173612626       -0.5805869765       -2.7395935566
O          -1.4139711950       -0.9425438016       -1.6731248572
N          -0.6595377629        0.6927292303       -3.0463607092
H          -0.2489446815        0.8731389701       -3.9508491501
CA         -0.9142645975        1.8552878449       -2.1826084067
HA         -0.3919233722        2.7077228543       -2.6200075298
CB         -2.4199875032        2.1779522809       -2.2534742891
HB1        -2.7348027448        2.2419102058       -3.2963072406
HB2        -2.9989105577        1.3985710996       -1.7554081493
HB3        -2.6236846168        3.1389528007       -1.7794977108
C          -0.3400045788        1.7019372119       -0.7487696145
O           0.6755613857        1.0297759687       -0.5397620960
N          -0.9714711592        2.3255478389        0.2536779787
H          -1.7902167582        2.8738947974        0.0309290330
CA         -0.5224727849        2.3154200165        1.6520351446
HA          0.5014252354        2.6926647859        1.6841560841
CB         -1.4116206439        3.2889661610        2.4366351345
HB1        -1.3584926475        4.2835108650        1.9911015188
HB2        -1.0663984497        3.3501910017        3.4697582190
HB3        -2.4466020332        2.9429829518        2.4278740673
C          -0.5115138353        0.9126704860        2.3058001635
O           0.1996949645        0.7011920233        3.2923778287
N          -1.2524415953       -0.0569237458        1.7516382390
H          -1.8309161975        0.1792163167        0.9580770014
CA         -1.2354496934       -1.4550471993        2.1944829206
HA         -1.2850797803       -1.4753360007        3.2847777875
CB         -2.4952282145       -2.1445619253        1.6556935068
HB1        -2.4812837620       -2.1582790926        0.5653173606
HB2        -2.5349040070       -3.1712545987        2.0220809453
HB3        -3.3847628325       -1.6146854338        1.9993529168
C           0.0510716145       -2.2064040778        1.7793257378
O           0.4666165783       -3.1406352240        2.4721510061
N           0.7019912138       -1.7884842425        0.6851065437
H           0.2866368519       -1.0382452061        0.1474589507
CA          1.9970586235       -2.3093197736        0.2312245878
HA          2.1346838604       -3.3206458122        0.6175860202
CB          1.9651925312       -2.4007301298       -1.2989483822
HB1         1.8505131732       -1.4059713855       -1.7315890596
HB2         1.1347867981       -3.0335167912       -1.6147443348
HB3         2.8973221664       -2.8384089795       -1.6586640740
C           3.1929513003       -1.4640634336        0.7251685772
O           4.2670924208       -2.0104449631        0.9988840285
N           3.0121785009       -0.1425334371        0.8626473726
H           2.1199704799        0.2350411007        0.5616945870
CH3         4.0167614361        0.8000975036        1.3536998367
HH31        4.3036207777        0.5438439632        2.3756602912
HH32        4.9041434218        0.7682758524        0.7181265715
HH33        3.6126162977        1.8141840162        1.3443636055
          52
Energy of minimum      5=    -39.40628512     first found at step      946 after               551346 function calls
HH31       -2.2135562524       -2.2898493346       -0.4873039430
CH3        -2.8256028755       -1.4266019679       -0.7438429835
HH32       -2.9364794157       -1.3632342698       -1.8255946439
HH33       -3.8072691621       -1.5301184730       -0.2829900247
C          -2.1657492662       -0.1673602268       -0.2356915927
O          -1.0459550053       -0.2234116425        0.2690688485
N          -2.8527575784        0.9671513964       -0.3825199800
H          -3.7620774511        0.8971899995       -0.8175074960
CA         -2.4449384232        2.2980148551        0.0993079753
HA         -3.0984618410        3.0164440314       -0.3982520904
CB         -2.7511012318        2.3916501420        1.6037376040
HB1        -2.5935004325        3.4130640633        1.9522739136
HB2        -3.7903104774        2.1168301549        1.7890664353
HB3        -2.0969230543        1.7192796407        2.1605233502
C          -1.0046820438        2.7290585228       -0.2864710034
O          -0.3509002806        3.4768365394        0.4477263998
N          -0.4950044599        2.2286336911       -1.4219628792
H          -1.1100076993        1.6539388509       -1.9812377380
CA          0.8920725259        2.3685644499       -1.8923154449
HA          0.9933144668        1.6788903637       -2.7320303595
CB          1.0952080597        3.7800595263       -2.4692221618
HB1         2.0629532740        3.8402616042       -2.9686080241
HB2         1.0615033602        4.5217441524       -1.6705789899
HB3         0.3133039552        3.9996294530       -3.1973926136
C           1.9824726699        1.9179668124       -0.8811591516
O           3.1349072458        2.3556004403       -0.9689162513
N           1.6314149182        1.0421263123        0.0721610350
H           0.6606156113        0.7542010278        0.0975053145
CA          2.5143690537        0.5561625577        1.1440664014
HA          3.5486604500        0.8125183303        0.9089738262
CB          2.1272319030        1.2941741327        2.4330166526
HB1         2.2212089463        2.3711379598        2.2862730380
HB2         2.7908507131        0.9908449071        3.2439487080
HB3         1.0976146565        1.0579274844        2.7068826293
C           2.4736954902       -0.9763305771        1.3465627264
O           3.4867468749       -1.5720046918        1.7251000190
N           1.3300919276       -1.6175141659        1.0742501337
H           0.5224099178       -1.0530652870        0.8358939246
CA          1.0960701204       -3.0612940765        1.2185096782
HA          2.0301489911       -3.5481103747        1.5025468221
CB          0.1005646797       -3.2561505830        2.3716778640
HB1         0.4861294961       -2.7867574073        3.2778230068
HB2        -0.8604411372       -2.8076195976        2.1150329737
HB3        -0.0417168744       -4.3203467338        2.5636051428
C           0.6303672870       -3.7548270872       -0.0876952262
O           0.3150356331       -4.9500643511       -0.0784740434
N           0.5772443207       -3.0244206273       -1.2123731847
H           0.8665759863       -2.0587375352       -1.1514064974
CH3         0.1360806526       -3.5202551702       -2.5171071111
HH31       -0.8898669545       -3.8885278565       -2.4511668367
HH32        0.1749936134       -2.7179031374       -3.2564883389
HH33        0.7834451159       -4.3353962276       -2.8472258132
          52
Energy of minimum      6=    -39.39795144     first found at step      945 after               550673 function calls
HH31       -3.7125726375       -1.5971558465       -0.8057964107
CH3        -2.7203734989       -1.3916157195       -1.2057972741
HH32       -2.0801887753       -2.2584059249       -1.0492269059
HH33       -2.7948965694       -1.1787468293       -2.2714720728
C          -2.1360198440       -0.1934655021       -0.4973472808
O          -1.0509241959       -0.2878290911        0.0729231080
N          -2.8467953284        0.9346012004       -0.5469392891
H          -3.7230437161        0.9005689882       -1.0488835358
CA         -2.5115382281        2.2021621553        0.1243254154
HA         -3.1535033134        2.9632765737       -0.3221571678
CB         -2.9161901405        2.0964861713        1.6044865905
HB1        -2.8131873139        3.0684960919        2.0884011678
HB2        -3.9560530887        1.7766466955        1.6832986190
HB3        -2.2783488633        1.3737755280        2.1152565525
C          -1.0632483860        2.7113146000       -0.1052119374
O          -0.4888369225        3.3888511038        0.7531256069
N          -0.4583014151        2.3563755457       -1.2487026547
H          -1.0120485359        1.8320531930       -1.9116968680
CA          0.9531305965        2.5827837894       -1.5956012958
HA          1.1391198319        1.9900919356       -2.4928935893
CB          1.1480158739        4.0531943121       -2.0034894536
HB1         2.1470911654        4.1932241037       -2.4179495542
HB2         1.0293459783        4.7033659509       -1.1361479656
HB3         0.4144366465        4.3283328008       -2.7624163778
C           1.9810382855        2.0554891733       -0.5564791002
O           3.1127694531        2.5481392850       -0.4921410482
N           1.5999573991        1.0566986134        0.2542163731
H           0.6496042651        0.7201493580        0.1560598840
CA          2.4236297100        0.4839593734        1.3305444997
HA          3.4690546631        0.7534523636        1.1711637278
CB          1.9693158929        1.1169980667        2.6532910261
HB1         2.0764719695        2.2014356137        2.6014152524
HB2         2.5860292927        0.7418824154        3.4712119214
HB3         0.9250083578        0.8693690402        2.8506926593
C           2.3706992860       -1.0588724195        1.4065805141
O           3.3945168388       -1.6966334107        1.6697322979
N           1.2034237055       -1.6624787944        1.1510001608
H           0.3942848911       -1.0766375233        0.9778029476
CA          0.9738641910       -3.1133899117        1.1526528354
HA          1.8091425319       -3.6081563143        1.6507068470
CB         -0.2853965235       -3.3818069998        1.9881064822
HB1        -0.1597970102       -2.9713013011        2.9910323705
HB2        -1.1540606453       -2.9203211977        1.5159955235
HB3        -0.4527290996       -4.4567015170        2.0678589625
C           0.8714791754       -3.7329516127       -0.2628618465
O           0.8618580557       -4.9612245765       -0.4003743211
N           0.7981559426       -2.9051019823       -1.3164239306
H           0.8060464933       -1.9132874736       -1.1252095415
CH3         0.6867041040       -3.3280318044       -2.7131066844
HH31       -0.2166359520       -3.9254614909       -2.8530534333
HH32        0.6359848492       -2.4550173949       -3.3667446832
HH33        1.5545105575       -3.9285794038       -2.9937571230
          52
Energy of minimum      7=    -39.37804819     first found at step      568 after               310520 function calls
HH31        0.6871339930        1.7353680678       -3.9210293070
CH3         1.3897653620        2.5138922325       -3.6263971831
HH32        1.3456674919        3.3328903951       -4.3433199074
HH33        2.3988725790        2.1040073156       -3.6025902648
C           1.0178555222        3.0308091674       -2.2551939894
O           1.8182297068        2.9452501110       -1.3247354348
N          -0.1993562026        3.5607819617       -2.1303414927
H          -0.7786196256        3.6120736298       -2.9562335436
CA         -0.7348123760        4.1163403474       -0.8801646034
HA          0.0611334266        4.6696365492       -0.3785302858
CB         -1.8409997915        5.1152547289       -1.2454469402
HB1        -2.2164432600        5.5945117753       -0.3402402430
HB2        -1.4431163478        5.8841531369       -1.9093845546
HB3        -2.6642998876        4.5990573464       -1.7418509990
C          -1.2407785906        3.0466137492        0.1175109490
O          -1.4013170444        3.3360142610        1.3080525240
N          -1.4881790542        1.8164801117       -0.3487330087
H          -1.3330671219        1.6505531646       -1.3316241229
CA         -1.9025659328        0.6765110262        0.4751007679
HA         -2.6603878154        1.0164626651        1.1839844139
CB         -2.5548284207       -0.3668905697       -0.4439844171
HB1        -2.9370113878       -1.1992466045        0.1487606808
HB2        -1.8236093179       -0.7462337003       -1.1600891253
HB3        -3.3874617199        0.0851431514       -0.9854682509
C          -0.7366009464        0.0754409255        1.2924096487
O           0.4402368142        0.2852577246        0.9815424366
N          -1.0584758833       -0.7312728635        2.3109546769
H          -2.0382208456       -0.8728263165        2.5164597517
CA         -0.0763798401       -1.3725971703        3.1979588079
HA          0.5544241414       -0.5933783144        3.6297610884
CB         -0.8462028465       -2.0475056989        4.3407056527
HB1        -0.1416637198       -2.4851904049        5.0494420912
HB2        -1.4894774375       -2.8359554088        3.9464001911
HB3        -1.4565860185       -1.3104016647        4.8646456614
C           0.8621131241       -2.3751247970        2.4826492222
O           1.9632265322       -2.6486395087        2.9695905852
N           0.4564870769       -2.8940442248        1.3161585756
H          -0.4725538202       -2.6597450373        0.9980182142
CA          1.2637443075       -3.7723676824        0.4611503528
HA          1.8392798762       -4.4437806555        1.1008558688
CB          0.2982997058       -4.6319771769       -0.3665948751
HB1         0.8629157781       -5.3521655150       -0.9602806374
HB2        -0.2864853547       -3.9998638973       -1.0367830141
HB3        -0.3752498000       -5.1776263440        0.2959691628
C           2.2831831981       -3.0236861397       -0.4360164635
O           3.1101719448       -3.6653251873       -1.0937824150
N           2.2402423367       -1.6827340176       -0.4803412325
H           1.5481355543       -1.2151551665        0.0939038796
CH3         3.1179638710       -0.8378591279       -1.2905540366
HH31        2.8710416097        0.2138627886       -1.1323347331
HH32        4.1606022496       -1.0012054029       -1.0104758332
HH33        2.9940242071       -1.0735677359       -2.3494642889
          52
Energy of minimum      8=    -39.26483926     first found at step      931 after               540691 function calls
HH31       -3.0937201031       -1.8512933750        2.7110440268
CH3        -3.6327968963       -1.3825237674        1.8887264087
HH32       -3.7987031101       -2.1124675406        1.0974508817
HH33       -4.5920478967       -1.0112144497        2.2471357788
C          -2.8231322263       -0.2283819908        1.3417178292
O          -1.7258866361        0.0389726815        1.8318437300
N          -3.3771475000        0.4541219736        0.3365976148
H          -4.2846435599        0.1466430078        0.0186529255
CA         -2.7677774304        1.5887854298       -0.3737342362
HA         -3.3733246301        1.7818244403       -1.2608515912
CB         -2.8913867555        2.8362101929        0.5233795780
HB1        -2.6265069116        3.7333134236       -0.0374469026
HB2        -3.9217043705        2.9435396735        0.8662928358
HB3        -2.2358521386        2.7464325417        1.3909117234
C          -1.3358186316        1.2958563026       -0.8970328571
O          -0.9785876178        0.1428405820       -1.1628675146
N          -0.5032640768        2.3315330919       -1.0648531211
H          -0.8467124060        3.2586612504       -0.8568214352
CA          0.8702669980        2.2105552628       -1.5707088719
HA          0.8355879075        1.7243091628       -2.5474888734
CB          1.4286465675        3.6264713764       -1.7632793094
HB1         1.4775562316        4.1455708099       -0.8045443866
HB2         0.7905148853        4.1884211914       -2.4469869734
HB3         2.4319710222        3.5700949156       -2.1881473336
C           1.7933537184        1.3603457287       -0.6665366983
O           2.7533850302        0.7588890590       -1.1560421842
N           1.4857341744        1.2524490585        0.6331271198
H           0.6900598937        1.7707385716        0.9772625774
CA          2.2264035235        0.4235580559        1.5909499255
HA          3.2885985859        0.6583105343        1.4999982471
CB          1.7760098277        0.8140037797        3.0043766443
HB1         1.9406811966        1.8802614399        3.1661619452
HB2         0.7174929724        0.5869921466        3.1382330407
HB3         2.3544018244        0.2544151347        3.7407728670
C           2.0709632075       -1.0958651343        1.3436199542
O           2.9355951757       -1.8768619623        1.7525873465
N           1.0085769431       -1.5184545435        0.6453459226
H           0.3200385653       -0.8299292992        0.3680694738
CA          0.7737814865       -2.9056453199        0.2267319351
HA          1.2511122754       -3.5715908907        0.9475627434
CB         -0.7361308789       -3.1725904232        0.2914515744
HB1        -1.1039858494       -2.9648891543        1.2966995245
HB2        -1.2606947911       -2.5401685289       -0.4256708072
HB3        -0.9369205858       -4.2184930559        0.0564084903
C           1.3763741523       -3.2538193942       -1.1584861014
O           1.2789944724       -4.4032467647       -1.6032685487
N           1.9989521239       -2.2853724156       -1.8484831380
H           2.0530501986       -1.3697832891       -1.4211801366
CH3         2.6117438047       -2.4516060619       -3.1664934109
HH31        3.3908015734       -3.2156814940       -3.1250756148
HH32        3.0586637474       -1.5099398073       -3.4913648758
HH33        1.8574329174       -2.7543021571       -3.8957477421
          52
Energy of minimum      9=    -39.07219623     first found at step      851 after               486503 function calls
HH31       -5.2115336162        3.2511998124       -2.7013463136
CH3        -4.1415465256        3.4409436897       -2.7778093796
HH32       -3.8914780940        3.7091633110       -3.8036762628
HH33       -3.8693609839        4.2579970047       -2.1107120450
C          -3.3844144830        2.1949535977       -2.3779669309
O          -2.6264002538        1.6519891795       -3.1808963411
N          -3.5936051595        1.7516448669       -1.1358317000
H          -4.2498595481        2.2714928488       -0.5700359979
CA         -2.9760682616        0.5645509646       -0.5223127708
HA         -3.2135506058        0.6187355900        0.5414707856
CB         -3.6692755086       -0.7013157078       -1.0552516449
HB1        -4.7496591592       -0.6120579669       -0.9343355676
HB2        -3.3267629082       -1.5740147338       -0.4976608292
HB3        -3.4360258068       -0.8404559676       -2.1115066474
C          -1.4264408110        0.5243877714       -0.5795483362
O          -0.8186534208       -0.5505704464       -0.6017890604
N          -0.7704333838        1.6928178210       -0.5833937939
H          -1.3210747397        2.5392924753       -0.5556135904
CA          0.6818426821        1.8308208707       -0.7608321883
HA          0.9582031524        1.3432362197       -1.6975567870
CB          0.9985710384        3.3261669801       -0.8934739644
HB1         2.0645589942        3.4599028623       -1.0834878838
HB2         0.7330053135        3.8500363566        0.0263139818
HB3         0.4386881738        3.7524749749       -1.7273287384
C           1.5217543324        1.1744898799        0.3594104994
O           2.6724170538        0.7921772829        0.1283256941
N           0.9437532924        0.9825580337        1.5524484985