          45
Energy of minimum      1=     0.000000000     first found at step      424 after               146927 function calls
HH31       -4.5552313528       -0.1914253115        3.0116840034
CH3        -3.4660365901       -0.1745661945        3.0360939555
HH32       -3.1243014490        0.8576889086        3.1060272410
HH33       -3.1150951996       -0.7314165187        3.9046071690
C          -2.9229805981       -0.8019297436        1.7650646958
O          -2.1992649697       -1.7954549889        1.8147219273
N          -3.2656171440       -0.2200673850        0.6173834160
H          -3.9075588802        0.5607308230        0.6504466557
CA         -2.8960434303       -0.7337357019       -0.7176223910
HA         -3.0058012812       -1.8190022237       -0.7212147544
CB         -3.8587183660       -0.1679019739       -1.7771884495
HB2        -3.7123749073        0.9119561371       -1.8490165377
HB3        -3.6221307908       -0.6122351249       -2.7461450006
OG         -5.2221475074       -0.4413944736       -1.4565626190
HG         -5.7980120843       -0.0734172138       -2.1632569960
C          -1.4370642872       -0.4349798256       -1.1323022524
O          -0.9754778194       -0.9182353788       -2.1709871684
N          -0.7026404981        0.3592431545       -0.3399508996
H          -1.1504487624        0.7143549423        0.4950403830
CA          0.7199344243        0.6914109957       -0.5290008098
HA          0.9052209639        0.8219937016       -1.5971319493
CB          1.5698809678       -0.4970618063       -0.0259007306
HB2         1.4243584204       -0.6132426087        1.0500478030
HB3         1.2236896442       -1.4100594241       -0.5134730135
CG          3.0708407163       -0.3378094392       -0.3184888241
HG2         3.4593530164        0.5295088857        0.2167539255
HG3         3.2144385495       -0.1878528731       -1.3897816330
CD          3.8509813537       -1.5831039998        0.1246617920
HD2         3.4731113684       -2.4551736953       -0.4131767717
HD3         3.7056671220       -1.7361093529        1.1961324052
CE          5.3466574388       -1.4033722402       -0.1724105200
HE2         5.7075392785       -0.5154379547        0.3558281789
HE3         5.4750801935       -1.2295057312       -1.2452484240
NZ          6.1393881874       -2.5920172202        0.2425460680
HZ1         6.0511712446       -2.7627853592        1.2350081906
HZ2         7.1213000892       -2.4590575040        0.0407061975
HZ3         5.8361490307       -3.4232299803       -0.2463910832
C           1.0908207730        2.0138971934        0.1803134610
O           0.6432123707        2.2708407374        1.3040384481
N           1.9111522976        2.8494315745       -0.4688609948
H           2.2351564682        2.5755296708       -1.3859091200
CH3         2.3741189069        4.1332379165        0.0546696444
HH31        3.0320260917        4.6145189215       -0.6707731205
HH32        2.9251231082        3.9806678567        0.9844616485
HH33        1.5219516293        4.7875397259        0.2472740176
          45
Energy of minimum      2=    0.1312826843     first found at step      451 after               156742 function calls
HH31       -2.7795063842       -2.4813920500        3.0650538836
CH3        -1.7660302857       -2.2640198672        2.7291398668
HH32       -1.1094400915       -3.0898158643        3.0020743409
HH33       -1.4169476310       -1.3502308693        3.2091017692
C          -1.7629705726       -2.0764964586        1.2231023815
O          -1.0797461046       -2.8009313870        0.5011200000
N          -2.5241266379       -1.0962954247        0.7417876296
H          -3.0720076819       -0.5425758976        1.3881321635
CA         -2.6585302572       -0.7648386904       -0.6895121051
HA         -2.6001906312       -1.6837972248       -1.2749611309
CB         -4.0490005437       -0.1539044009       -0.9358222833
HB2        -4.1399593256        0.1242086794       -1.9876936194
HB3        -4.8049476239       -0.9110585415       -0.7178836542
OG         -4.2817240297        0.9888043730       -0.1120458748
HG         -5.1791355618        1.3424069930       -0.3010731240
C          -1.5499481029        0.1664642426       -1.2298806162
O          -1.4630750819        0.3919618290       -2.4418026991
N          -0.6890563885        0.6976908023       -0.3498304481
H          -0.8379597463        0.4765177040        0.6256344661
CA          0.4879593404        1.5234318072       -0.6741745605
HA          0.2014451938        2.2220473298       -1.4629008459
CB          1.6199150858        0.6274339934       -1.2307638199
HB2         2.4527684970        1.2620946046       -1.5390551966
HB3         1.2569005249        0.1119760087       -2.1213846495
CG          2.1404791137       -0.4208024501       -0.2299376040
HG2         2.5503664865        0.0823143002        0.6467990536
HG3         1.3200068118       -1.0662858331        0.0855507545
CD          3.2359540311       -1.2879479422       -0.8642632246
HD2         2.8309093147       -1.7921739968       -1.7441296264
HD3         4.0681451147       -0.6507017570       -1.1705783711
CE          3.7297749735       -2.3332473941        0.1460005691
HE2         4.1128646165       -1.8157173370        1.0309012709
HE3         2.8807584640       -2.9484919467        0.4597484739
NZ          4.7932415208       -3.1997338726       -0.4299054635
HZ1         5.1078076180       -3.8825175319        0.2464596245
HZ2         5.5969172214       -2.6549634280       -0.7115117906
HZ3         4.4569021538       -3.7031416603       -1.2394880005
C           0.9615680070        2.3843902128        0.5196209421
O           0.6413182008        2.0936222378        1.6784961788
N           1.7369985362        3.4382068352        0.2377228201
H           1.9617113924        3.6092672323       -0.7325634859
CH3         2.2880374305        4.3564526209        1.2324673040
HH31        2.9262910486        3.8117107148        1.9305161928
HH32        2.8822008356        5.1265078585        0.7377821014
HH33        1.4793300655        4.8359300451        1.7869724502
          45
Energy of minimum      3=    0.2098116779     first found at step      436 after               151396 function calls
HH31       -3.0726830080       -1.9953740364        3.1048364515
CH3        -2.0340084651       -1.8507053693        2.8091030068
HH32       -1.6326444789       -0.9774642365        3.3225215798
HH33       -1.4535735315       -2.7308752039        3.0846868776
C          -1.9621639212       -1.6323732042        1.3087568257
O          -1.3156717620       -2.3964394868        0.5937636917
N          -2.6233153242       -0.5825777824        0.8252006586
H          -3.1794398025       -0.0315164344        1.4653055331
CA         -2.7195834747       -0.2529854119       -0.6116715301
HA         -2.8316105769       -1.1767103503       -1.1808887929
CB         -3.9737674133        0.6020425150       -0.8671978171
HB2        -3.8547959272        1.5652856163       -0.3665325440
HB3        -4.0689878386        0.7816498673       -1.9400219049
OG         -5.1583049834       -0.0366056264       -0.3924168340
HG         -5.9320406563        0.5385203734       -0.5847161918
C          -1.4769255716        0.4696508333       -1.1794394633
O          -1.3805055019        0.6771781386       -2.3930889369
N          -0.5258202583        0.8622852954       -0.3198135889
H          -0.6824157632        0.6642140049        0.6599487298
CA          0.7545075652        1.5025493855       -0.6741459805
HA          0.5582128199        2.2334156435       -1.4613773119
CB          1.7280273543        0.4467084818       -1.2495945161
HB2         1.2662906600       -0.0226282311       -2.1197518771
HB3         2.6325714854        0.9513424686       -1.5939960980
CG          2.1264671009       -0.6518818285       -0.2470723302
HG2         2.6389236613       -0.2020368929        0.6043025451
HG3         1.2326585933       -1.1637488210        0.1102769417
CD          3.0574809007       -1.6807635177       -0.9019927582
HD2         3.9622392100       -1.1782370885       -1.2503066459
HD3         2.5495176616       -2.1325368291       -1.7565869798
CE          3.4296844659       -2.7725067202        0.1112374156
HE2         2.5116493911       -3.2502030197        0.4673392008
HE3         3.9183831521       -2.3043643067        0.9712624551
NZ          4.3307868046       -3.7956751494       -0.4841911098
HZ1         3.8931652569       -4.2556593140       -1.2708698021
HZ2         4.5665749763       -4.5073744236        0.1944079945
HZ3         5.1947853644       -3.3804306248       -0.8051944974
C           1.3771599809        2.2885459943        0.5029660695
O           1.0328187996        2.0625587787        1.6692445118
N           2.3043799189        3.2043582569        0.1984125195
H           2.5380224895        3.3292210499       -0.7768111744
CH3         3.0088499681        4.0330532730        1.1748853018
HH31        3.7091890846        4.6951904394        0.6631841402
HH32        2.2947101684        4.6392000531        1.7352339940
HH33        3.5641346238        3.4007552430        1.8700541799
          45
Energy of minimum      4=    0.3714556648     first found at step      378 after               129453 function calls
HH31       -0.8972673306       -3.6530766144        0.5559473122
CH3        -1.8626130361       -3.7910026755        0.0698563638
HH32       -2.5892839880       -4.1342152401        0.8056658550
HH33       -1.7673089935       -4.5364098715       -0.7193746560
C          -2.3257151482       -2.4708811430       -0.5185419590
O          -2.5323890136       -2.3585516033       -1.7258030891
N          -2.4832372017       -1.4600587326        0.3328984005
H          -2.3073747293       -1.6202636529        1.3168348174
CA         -2.9426990804       -0.1087191225       -0.0413364833
HA         -3.6572888816       -0.1910420635       -0.8618883972
CB         -3.6889829009        0.5157730062        1.1508937560
HB2        -3.9924358313        1.5329690913        0.8954061423
HB3        -4.5910097469       -0.0696709595        1.3402820092
OG         -2.8884020390        0.5320237892        2.3328468041
HG         -3.4055327254        0.9364184097        3.0642122661
C          -1.8182672455        0.8278002192       -0.5399901027
O          -2.0864012613        1.9542459215       -0.9720805012
N          -0.5571179595        0.3750290166       -0.5154682287
H          -0.4050725272       -0.5539102928       -0.1506655567
CA          0.6176702496        1.1335417799       -0.9742796494
HA          0.3615422857        1.5819915942       -1.9364788240
CB          1.7875341629        0.1585834341       -1.2275055319
HB2         1.4609110844       -0.5960892814       -1.9459949594
HB3         2.6105165702        0.7126699430       -1.6831287488
CG          2.3099235423       -0.5493112664        0.0363428584
HG2         1.5013916833       -1.1138858223        0.5027978309
HG3         2.6770485099        0.1935789059        0.7455353844
CD          3.4534711161       -1.5124089995       -0.3103178039
HD2         4.2677287507       -0.9520002670       -0.7745436221
HD3         3.0908637011       -2.2626685451       -1.0161726007
CE          3.9643676089       -2.2052932426        0.9611481699
HE2         4.3025059275       -1.4411590507        1.6679066848
HE3         3.1347788996       -2.7468642578        1.4261106275
NZ          5.0784029704       -3.1469579863        0.6681133116
HZ1         5.8653263278       -2.6657916368        0.2543239211
HZ2         4.7852815790       -3.8741280147        0.0299312688
HZ3         5.4040318782       -3.5949504858        1.5142282846
C           1.0075121779        2.3029155585       -0.0384144657
O           0.7421284217        2.2752522024        1.1696731141
N           1.6676775969        3.3250114086       -0.5967511504
H           1.8602390386        3.2746358426       -1.5873458568
CH3         2.1338349589        4.5078401186        0.1237763167
HH31        2.6371489289        5.1878378581       -0.5654032058
HH32        1.2872480269        5.0265772759        0.5770985314
HH33        2.8352696035        4.2152730646        0.9071601598
          45
Energy of minimum      5=    0.5044431800     first found at step      491 after               171992 function calls
HH31       -3.9932858393       -0.7973658286        3.0186161099
CH3        -2.9041054547       -0.8257180141        3.0215204487
HH32       -2.5636403726       -1.5592519404        3.7519922877
HH33       -2.5195487216        0.1576065003        3.2905168740
C          -2.4053037666       -1.2028779537        1.6387144523
O          -1.7184667811       -2.2098319381        1.4731256027
N          -2.7413359404       -0.3882944002        0.6391066025
H          -3.3058489704        0.4234245344        0.8561632571
CA         -2.3539926934       -0.6095533599       -0.7707876857
HA         -2.2658092842       -1.6811036764       -0.9556160020
CB         -3.4526741231       -0.0757486910       -1.7074233947
HB2        -3.5863421558        0.9943840106       -1.5360893603
HB3        -3.1359081142       -0.2166142212       -2.7423822861
OG         -4.6939926348       -0.7548829344       -1.5205293762
HG         -5.0204816925       -0.5927050862       -0.6087080769
C          -0.9865162700        0.0065396543       -1.1440778844
O          -0.5154661636       -0.1625678557       -2.2728706294
N          -0.3378804175        0.7183080742       -0.2106974217
H          -0.7919684342        0.8214075347        0.6872096086
CA          1.0027507764        1.3166081869       -0.3501273148
HA          1.2389092125        1.4306559836       -1.4099988780
CB          2.0562646746        0.3846931540        0.2892130632
HB2         3.0267651535        0.8838437762        0.2552571867
HB3         1.7994961646        0.2195835202        1.3377080912
CG          2.1924421195       -0.9755068544       -0.4154597460
HG2         2.4102539776       -0.8130353072       -1.4722224208
HG3         1.2579647541       -1.5303745033       -0.3257549334
CD          3.3198625041       -1.8082494453        0.2092843946
HD2         3.1048643721       -1.9671732713        1.2680390876
HD3         4.2633716230       -1.2667137819        0.1148335537
CE          3.4295757744       -3.1634296854       -0.5037840921
HE2         2.4713214408       -3.6850948168       -0.4189186093
HE3         3.6217791909       -2.9881389886       -1.5667622188
NZ          4.5132050642       -4.0050101051        0.0713537239
HZ1         4.5729025228       -4.8933027225       -0.4081671912
HZ2         4.3481227119       -4.1958516065        1.0502505232
HZ3         5.4125837859       -3.5510335363       -0.0119427930
C           1.0751762879        2.7249273833        0.2819573907
O           0.3481581113        3.0300952343        1.2352875242
N           1.9656014716        3.5791047902       -0.2371024834
H           2.5328042341        3.2554646888       -1.0081650330
CH3         2.1820488227        4.9454494483        0.2350573375
HH31        1.2602784038        5.5228777060        0.1438516357
HH32        2.4949495779        4.9342445419        1.2806997342
HH33        2.9598414495        5.4252829352       -0.3612106878
          45
Energy of minimum      6=    0.6441935036     first found at step      104 after                34260 function calls
HH31       -1.3034995010       -1.6428609049       -3.3117831991
CH3        -2.3553734149       -1.6074586562       -3.0298851270
HH32       -2.7958758006       -2.5952604726       -3.1617026025
HH33       -2.8767215799       -0.8909614079       -3.6642363886
C          -2.4752980345       -1.1926783131       -1.5756111078
O          -3.0840753720       -0.1713367453       -1.2600162346
N          -1.8756218424       -1.9717779455       -0.6777439332
H          -1.3653377555       -2.7841195656       -1.0007699258
CA         -1.9194014925       -1.7495873330        0.7804442410
HA         -2.9577173470       -1.5920989288        1.0770365867
CB         -1.4227026757       -3.0116275009        1.5062475511
HB2        -2.1205518795       -3.8266036101        1.3037427298
HB3        -1.4164377041       -2.8285420866        2.5826478265
OG         -0.1179257710       -3.3969648674        1.0748200950
HG          0.1535279658       -4.2070896230        1.5603602272
C          -1.1390089703       -0.5051920116        1.2564223712
O          -1.3319274326       -0.0418202280        2.3847698446
N          -0.3024535434        0.0851609810        0.3911314468
H          -0.1715021201       -0.3630088687       -0.5056591659
CA          0.4140199664        1.3478835271        0.6389336008
HA          0.6921759955        1.3948259265        1.6933598341
CB          1.7107046329        1.3588870626       -0.1962099494
HB2         1.4615125601        1.2548603133       -1.2541874402
HB3         2.2092054787        2.3200571487       -0.0571638318
CG          2.6900722976        0.2452131447        0.2127286828
HG2         2.9193423056        0.3420522344        1.2751790311
HG3         2.2337024792       -0.7302392351        0.0385381928
CD          3.9922832161        0.3349261559       -0.5940254123
HD2         3.7637203637        0.2392421730       -1.6575117713
HD3         4.4600740310        1.3054945148       -0.4163662927
CE          4.9522676601       -0.7854337796       -0.1696085677
HE2         4.4627382496       -1.7503128002       -0.3337035635
HE3         5.1531984505       -0.6905282744        0.9019177631
NZ          6.2312897349       -0.7345030238       -0.9276847900
HZ1         6.7113261548        0.1422848207       -0.7770290990
HZ2         6.8524405943       -1.4776914982       -0.6372373550
HZ3         6.0727172843       -0.8381940163       -1.9206424435
C          -0.4435336566        2.6086866441        0.3688601094
O          -0.0123466214        3.7249039909        0.6786410566
N          -1.6491207281        2.4501634732       -0.1946020576
H          -1.9361710397        1.5049288910       -0.4160556688
CH3        -2.5777363898        3.5314691363       -0.5113304665
HH31       -2.1139828915        4.2291867893       -1.2108241410
HH32       -3.4799789650        3.1203789370       -0.9668619630
HH33       -2.8526762377        4.0663608285        0.3994117064
          45
Energy of minimum      7=    0.6748691353     first found at step      421 after               145581 function calls
HH31       -3.9050581788       -3.6432288866        1.1963797876
CH3        -2.9000845263       -3.5703242388        0.7817531276
HH32       -2.1835135629       -3.4581991238        1.5948594207
HH33       -2.6730515426       -4.4772129891        0.2217819723
C          -2.8186517175       -2.3626863320       -0.1339191801
O          -2.5318002464       -2.4939036037       -1.3228896257
N          -3.0653492716       -1.1762776721        0.4180813482
H          -3.3439691038       -1.1500122825        1.3903803715
CA         -3.1036134655        0.0978195651       -0.3279320398
HA         -3.6111757647       -0.0636402996       -1.2801504633
CB         -3.9124424503        1.1393785663        0.4686696276
HB2        -4.0284618883        2.0431825116       -0.1330992619
HB3        -3.3521378033        1.4021030270        1.3681181460
OG         -5.2003948883        0.6587529589        0.8559083808
HG         -5.7670448475        0.5631110596        0.0586018967
C          -1.7112333381        0.6785861220       -0.6645146959
O          -1.6088062199        1.6730071053       -1.3895759842
N          -0.6275102576        0.0791919942       -0.1527866570
H          -0.7748683026       -0.7309262385        0.4331590915
CA          0.7575322747        0.5200707267       -0.3763106242
HA          0.9045004293        0.6391470499       -1.4517395360
CB          1.6982834418       -0.5983503742        0.1154803037
HB2         1.3996512784       -1.5373455544       -0.3555135110
HB3         1.5939445769       -0.7094298909        1.1968552618
CG          3.1737175461       -0.3325363278       -0.2255045821
HG2         3.5094890439        0.5735249057        0.2806547526
HG3         3.2744834404       -0.1944536508       -1.3032660803
CD          4.0591771120       -1.5053707335        0.2170676128
HD2         3.7330949211       -2.4149122290       -0.2918252531
HD3         3.9577962213       -1.6456779905        1.2953125814
CE          5.5272669301       -1.2191907545       -0.1299754164
HE2         5.6101464717       -1.0593622973       -1.2094629530
HE3         5.8346539411       -0.2951733818        0.3694295819
NZ          6.4206032509       -2.3349384737        0.2829605507
HZ1         6.3752089239       -2.4903261577        1.2808134007
HZ2         7.3830312615       -2.1322104710        0.0480113028
HZ3         6.1675191164       -3.1971738889       -0.1800905482
C           1.0523686089        1.8812858270        0.2973830141
O           0.7018020776        2.0982286068        1.4637007657
N           1.7167287117        2.7903045186       -0.4271343860
H           1.9670133464        2.5462518084       -1.3748934723
CH3         2.0973201054        4.1174072927        0.0516908032
HH31        2.6279141022        4.6575136388       -0.7340845953
HH32        1.2065305780        4.6833209368        0.3301670579
HH33        2.7503023294        4.0272395419        0.9216307470
          45
Energy of minimum      8=    0.7078928294     first found at step      432 after               149984 function calls
HH31       -3.1254791927       -0.6942568937        3.8979787961
CH3        -3.4722671139       -0.1450590401        3.0229537836
HH32       -3.1255792007        0.8862009610        3.0822372664
HH33       -4.5614742615       -0.1567735114        2.9967657293
C          -2.9302747438       -0.7885334514        1.7597296258
O          -2.2111764159       -1.7846703371        1.8208455894
N          -3.2688693341       -0.2173954292        0.6053832796
H          -3.9052022692        0.5688508609        0.6293645870
CA         -2.8950453357       -0.7409774219       -0.7242099744
HA         -3.0013883891       -1.8268054807       -0.7199126109
CB         -3.8531578006       -0.1763947523       -1.7905498656
HB2        -3.6681138041        0.8946533368       -1.8932365116
HB3        -3.6421382347       -0.6493609931       -2.7518937709
OG         -5.2278272147       -0.3732599022       -1.4567185071
HG         -5.4434608972       -1.3306349755       -1.5102876215
C          -1.4346154495       -0.4442490980       -1.1360068323
O          -0.9706785077       -0.9317629467       -2.1715962877
N          -0.7022707065        0.3534819414       -0.3452471284
H          -1.1522743277        0.7123110371        0.4869938555
CA          0.7203417908        0.6864365468       -0.5328642324
HA          0.9076007772        0.8130205491       -1.6011405667
CB          1.5707402309       -0.4989903155       -0.0233813011
HB2         1.4231294426       -0.6111768132        1.0527073618
HB3         1.2267625499       -1.4143112399       -0.5081507353
CG          3.0721058510       -0.3388721716       -0.3134583527
HG2         3.4583344056        0.5310596870        0.2191897061
HG3         3.2177403307       -0.1929010267       -1.3850270044
CD          3.8530520486       -1.5813341612        0.1361754028
HD2         3.7057119285       -1.7303647260        1.2079293947
HD3         3.4775394472       -2.4560248088       -0.3990503585
CE          5.3490930166       -1.4006226046       -0.1584742814
HE2         5.7075978936       -0.5101041156        0.3670265901
HE3         5.4795157647       -1.2307768665       -1.2317152511
NZ          6.1426636294       -2.5864824856        0.2627978948
HZ1         6.0526215313       -2.7534824476        1.2557370593
HZ2         7.1248031848       -2.4528909339        0.0624859919
HZ3         5.8416495166       -3.4200449349       -0.2235059285
C           1.0882358899        2.0121763164        0.1719311125
O           0.6381996067        2.2729204716        1.2938070564
N           1.9086757352        2.8462384207       -0.4789945252
H           2.2347179971        2.5691982253       -1.3943770051
CH3         2.3689595479        4.1327087513        0.0403487945
HH31        3.0275906811        4.6120095110       -0.6857480433
HH32        2.9184163008        3.9845322310        0.9717656222
HH33        1.5155664366        4.7866295983        0.2287773429
          45
Energy of minimum      9=    0.8475310146     first found at step      387 after               132722 function calls
HH31       -3.2136648598       -1.5169039569        3.1833803351
CH3        -2.1644615153       -1.5274884853        2.8896753277
HH32       -1.6660846821       -0.6526432981        3.3061799007
HH33       -1.6904050180       -2.4307949611        3.2728719738
C          -2.0639313443       -1.4929746526        1.3758737854
O          -1.5030953665       -2.4000487610        0.7625803449
N          -2.6020178205       -0.4395588539        0.7650000398
H          -3.0567394128        0.2707223953        1.3246116825
CA         -2.5993369571       -0.2326403599       -0.6952613428
HA         -2.7527623305       -1.1930090163       -1.1901077300
CB         -3.7800994614        0.6742267031       -1.0819966853
HB2        -3.7538263522        0.8599750364       -2.1576090025
HB3        -4.7104605844        0.1523082700       -0.8491019323
OG         -3.7516821734        1.9152064301       -0.3768628402
HG         -4.5229688755        2.4583159377       -0.6529983423
C          -1.2740397052        0.3363342877       -1.2476336417
O          -1.0450420252        0.3087334970       -2.4615936555
N          -0.3836525724        0.8245139008       -0.3719974810
H          -0.6569809277        0.8354657794        0.6014629533
CA          0.9910008064        1.2528606855       -0.6851975867
HA          0.9714145277        1.7777925767       -1.6424524854
CB          1.8873968650        0.0033768513       -0.8521986005
HB2         1.4512059192       -0.6322904086       -1.6230771047
HB3         2.8714788120        0.3162453250       -1.2059590158
CG          2.0661997286       -0.8096880905        0.4464675498
HG2         2.6020965964       -0.1990087932        1.1740244247
HG3         1.0925269839       -1.0614727125        0.8675120177
CD          2.8594232476       -2.1082586161        0.2373413012
HD2         3.8084981038       -1.8776374243       -0.2508474258
HD3         3.0726964443       -2.5376721689        1.2182340379
CE          2.0723344753       -3.1316048696       -0.5972803965
HE2         1.8802560505       -2.7126625761       -1.5892606669
HE3         1.1049944345       -3.3077301198       -0.1158825224
NZ          2.8085415841       -4.4174781389       -0.7320347277
HZ1         2.2792453857       -5.0806390978       -1.2823206849
HZ2         2.9798877957       -4.8376698831        0.1713909850
HZ3         3.7004713054       -4.2830090388       -1.1886875683
C           1.5626119984        2.2508111773        0.3481932833
O           1.0707447218        2.3457944719        1.4791770343
N           2.6133870676        2.9853076490       -0.0359846686
H           2.9647177686        2.8473105663       -0.9733771968
CH3         3.2945678227        3.9679252857        0.8046931956
HH31        4.1153079796        4.4255470512        0.2499927928
HH32        3.6975103144        3.4821620585        1.6952308412
HH33        2.5949884880        4.7486182500        1.1088043396
          45
Energy of minimum     10=    0.8523494194     first found at step      492 after               172352 function calls
HH31       -3.7139346039       -1.5406855484        3.0331612954
CH3        -2.6554023760       -1.2831775717        3.0134708395
HH32       -2.1103372601       -1.9409193601        3.6900981824
HH33       -2.5312614311       -0.2496731077        3.3354235025
C          -2.1243954972       -1.4394457615        1.6002806745
O          -1.2091938495       -2.2242824531        1.3564032217
N          -2.6944615803       -0.6867491468        0.6611349622
H          -3.4765510479       -0.1018795901        0.9255423609
CA         -2.3554937101       -0.7503323260       -0.7747755186
HA         -2.2415152213       -1.7956056380       -1.0659096560
CB         -3.5055228156       -0.1502927626       -1.6057025955
HB2        -3.5497235899        0.9237445437       -1.4148443805
HB3        -3.2975307857       -0.2963995498       -2.6676886801
OG         -4.7738873750       -0.7242114286       -1.2869126749
HG         -4.7989647526       -1.6561017520       -1.5981508424
C          -1.0321815705       -0.0430650842       -1.1455373532
O          -0.5625069432       -0.1637123373       -2.2811688953
N          -0.4236744982        0.6947231474       -0.2056245809
H          -0.8792890210        0.7553262744        0.6954380489
CA          0.8761290257        1.3774189700       -0.3417100680
HA          1.0972325571        1.5250913077       -1.4006582383
CB          1.9897577292        0.5013655233        0.2743783231
HB2         2.9261809722        1.0622908280        0.2492433289
HB3         1.7479299473        0.2972316008        1.3195524633
CG          2.2104486876       -0.8314610568       -0.4605033646
HG2         2.4183503066       -0.6319566918       -1.5129154912
HG3         1.3124606161       -1.4453243879       -0.3854387187
CD          3.3868093572       -1.6065810858        0.1478052719
HD2         3.1815512994       -1.8014303874        1.2024754967
HD3         4.2952769767       -1.0061931444        0.0666158499
CE          3.5794373132       -2.9367035806       -0.5941702846
HE2         2.6547486552       -3.5175123685       -0.5220766599
HE3         3.7609128546       -2.7270388475       -1.6527900804
NZ          4.7121962797       -3.7227989221       -0.0354534277
HZ1         4.8262068171       -4.5952181212       -0.5339014307
HZ2         4.5586468188       -3.9444543463        0.9388164323