    38
Energy=    -169.293878419161    
AX        0.4113651047        0.2093154922         1.784806968    
AX        0.9029935627       -0.9957126279       -0.5040474563    
AX         1.403727074        0.2860110484         1.223252881    
AX       -0.8891473327E-02     1.530329799       -0.8453110123    
AX         1.382208222        0.4344385413E-01   -0.7714397939    
AX       -0.8015665199        -1.827155178       -0.4247215986    
AX        -1.256188933       -0.4961259536        0.9571992718    
AX        0.4055768889         1.836545666        0.1256805670    
AX        -1.110209130        0.8109143985        0.4397288115    
AX        0.3243320640        -1.625655607         1.114141702    
AX        -1.414164179        0.3405074751        -1.419309357    
AX       -0.5153337687        0.9472910390        -1.632176416    
AX       -0.5776030200        0.3450952080         1.259030083    
AX        -1.111254353       -0.6951570250        -1.139010378    
AX       -0.5051398438       -0.1262805290        -1.894401962    
AX        0.2562529670        -1.781338917       -0.1963418822E-01
AX        -1.455657046        0.1230368160       -0.3367759970    
AX        0.8936497014        0.9500804196       -0.3067726202    
AX       -0.6825152826         1.784267747        0.1039366769    
AX         1.282881460       -0.3099553388        0.2964438040    
AX       -0.5885413958        -1.325303782        0.5603232503    
AX        0.9763522239         1.173153209        0.7725034557    
AX        0.9134319826       -0.6805101065         1.301974799    
AX        0.3507564968       -0.4951261833        -1.312653473    
AX        -1.322833102       -0.9070850238       -0.8787368554E-01
AX       -0.2524836474       -0.8934952916       -0.4900764809    
AX         1.218563161        -1.410207749        0.4840061100    
AX         1.794077981        0.6391306299        0.2150568062    
AX        -1.030869058         1.084271787       -0.6621855092    
AX       -0.1917936716       -0.6464414688         1.335856675    
AX        0.4443525046        0.5878386519        -1.229934978    
AX       -0.1122964579         1.265063904        0.9385365778    
AX        0.4209233220       -0.3313976884E-01   -0.3233842560    
AX       -0.4875775134        0.1496274637       -0.8367121099    
AX       -0.1455386755        0.8305054740       -0.4597983355E-01
AX       -0.5345693227       -0.1453221833        0.2463946828    
AX        0.3973979064        0.2487649957        0.7136751294    
AX        0.3261837713       -0.7911823451        0.4098528556    
    38
Energy=    -169.293878419161    
AX        0.4113651104        0.2093154948         1.784806971    
AX        0.9029935650       -0.9957126320       -0.5040474535    
AX         1.403727073        0.2860110534         1.223252880    
AX       -0.8891467568E-02     1.530329796       -0.8453110105    
AX         1.382208222        0.4344384485E-01   -0.7714397951    
AX       -0.8015665170        -1.827155177       -0.4247216060    
AX        -1.256188934       -0.4961259613        0.9571992679    
AX        0.4055768872         1.836545665        0.1256805663    
AX        -1.110209132        0.8109143986        0.4397288126    
AX        0.3243320569        -1.625655606         1.114141704    
AX        -1.414164174        0.3405074723        -1.419309359    
AX       -0.5153337721        0.9472910480        -1.632176413    
AX       -0.5776030215        0.3450952077         1.259030082    
AX        -1.111254351       -0.6951570245        -1.139010374    
AX       -0.5051398456       -0.1262805241        -1.894401958    
AX        0.2562529650        -1.781338917       -0.1963419505E-01
AX        -1.455657036        0.1230368155       -0.3367759976    
AX        0.8936496949        0.9500804220       -0.3067726353    
AX       -0.6825152838         1.784267747        0.1039366831    
AX         1.282881461       -0.3099553420        0.2964438087    
AX       -0.5885413936        -1.325303786        0.5603232504    
AX        0.9763522209         1.173153210        0.7725034492    
AX        0.9134319798       -0.6805101055         1.301974797    
AX        0.3507564930       -0.4951261835        -1.312653469    
AX        -1.322833095       -0.9070850247       -0.8787368612E-01
AX       -0.2524836499       -0.8934952922       -0.4900764838    
AX         1.218563153        -1.410207754        0.4840061213    
AX         1.794077971        0.6391306328        0.2150567967    
AX        -1.030869060         1.084271792       -0.6621855087    
AX       -0.1917936689       -0.6464414662         1.335856672    
AX        0.4443525039        0.5878386483        -1.229934986    
AX       -0.1122964596         1.265063906        0.9385365814    
AX        0.4209233256       -0.3313975545E-01   -0.3233842599    
AX       -0.4875775075        0.1496274681       -0.8367121073    
AX       -0.1455386713        0.8305054699       -0.4597983121E-01
AX       -0.5345693224       -0.1453221833        0.2463946867    
AX        0.3973979050        0.2487649957        0.7136751323    
AX        0.3261837753       -0.7911823533        0.4098528679    
    38
Energy=    -169.293878419160    
AX        0.4113651253        0.2093154891         1.784806971    
AX        0.9029935622       -0.9957126454       -0.5040474432    
AX         1.403727065        0.2860110690         1.223252856    
AX       -0.8891454143E-02     1.530329775       -0.8453110105    
AX         1.382208274        0.4344384647E-01   -0.7714397441    
AX       -0.8015665021        -1.827155169       -0.4247216415    
AX        -1.256188975       -0.4961259083        0.9571992513    
AX        0.4055768377         1.836545685        0.1256805789    
AX        -1.110209149        0.8109143963        0.4397288116    
AX        0.3243320463        -1.625655621         1.114141706    
AX        -1.414164172        0.3405074728        -1.419309365    
AX       -0.5153337716        0.9472910592        -1.632176422    
AX       -0.5776030245        0.3450952048         1.259030076    
AX        -1.111254345       -0.6951570095        -1.139010354    
AX       -0.5051398477       -0.1262805100        -1.894401949    
AX        0.2562529442        -1.781338929       -0.1963417997E-01
AX        -1.455657008        0.1230367995       -0.3367759996    
AX        0.8936496853        0.9500804835       -0.3067726961    
AX       -0.6825153222         1.784267736        0.1039367244    
AX         1.282881504       -0.3099553953        0.2964438262    
AX       -0.5885413911        -1.325303762        0.5603232470    
AX        0.9763521920         1.173153211        0.7725034029    
AX        0.9134319959       -0.6805101172         1.301974807    
AX        0.3507564813       -0.4951262026        -1.312653460    
AX        -1.322833115       -0.9070850405       -0.8787367895E-01
AX       -0.2524836443       -0.8934952699       -0.4900764624    
AX         1.218563153        -1.410207809        0.4840061415    
AX         1.794077934        0.6391306193        0.2150567303    
AX        -1.030869054         1.084271802       -0.6621855101    
AX       -0.1917936617       -0.6464414568         1.335856646    
AX        0.4443525114        0.5878386271        -1.229935023    
AX       -0.1122964827         1.265063913        0.9385366196    
AX        0.4209233562       -0.3313976030E-01   -0.3233842483    
AX       -0.4875774878        0.1496274864       -0.8367120985    
AX       -0.1455386760        0.8305054862       -0.4597979231E-01
AX       -0.5345693002       -0.1453221860        0.2463946995    
AX        0.3973979189        0.2487649774        0.7136751371    
AX        0.3261837993       -0.7911823475        0.4098528475    
    38
Energy=    -169.293878419159    
AX        0.4113651351        0.2093154828         1.784806968    
AX        0.9029935619       -0.9957126553       -0.5040474476    
AX         1.403727061        0.2860110726         1.223252841    
AX       -0.8891455609E-02     1.530329766       -0.8453110098    
AX         1.382208312        0.4344386684E-01   -0.7714397026    
AX       -0.8015664966        -1.827155165       -0.4247216529    
AX        -1.256189006       -0.4961258537        0.9571992336    
AX        0.4055768051         1.836545698        0.1256805879    
AX        -1.110209162        0.8109143896        0.4397288131    
AX        0.3243320439        -1.625655624         1.114141701    
AX        -1.414164176        0.3405074727        -1.419309368    
AX       -0.5153337654        0.9472910533        -1.632176428    
AX       -0.5776030197        0.3450952068         1.259030072    
AX        -1.111254342       -0.6951570037        -1.139010343    
AX       -0.5051398518       -0.1262805088        -1.894401948    
AX        0.2562529305        -1.781338937       -0.1963416270E-01
AX        -1.455656999        0.1230367881       -0.3367759991    
AX        0.8936496772        0.9500805176       -0.3067727175    
AX       -0.6825153497         1.784267726        0.1039367471    
AX         1.282881536       -0.3099554287        0.2964438347    
AX       -0.5885413906        -1.325303733        0.5603232427    
AX        0.9763521804         1.173153215        0.7725033841    
AX        0.9134320039       -0.6805101305         1.301974811    
AX        0.3507564760       -0.4951262120        -1.312653461    
AX        -1.322833139       -0.9070850544       -0.8787367531E-01
AX       -0.2524836463       -0.8934952621       -0.4900764542    
AX         1.218563157        -1.410207841        0.4840061410    
AX         1.794077920        0.6391306024        0.2150566968    
AX        -1.030869053         1.084271800       -0.6621855135    
AX       -0.1917936555       -0.6464414552         1.335856625    
AX        0.4443525193        0.5878386175        -1.229935029    
AX       -0.1122964938         1.265063918        0.9385366421    
AX        0.4209233742       -0.3313974768E-01   -0.3233842500    
AX       -0.4875774782        0.1496274918       -0.8367120929    
AX       -0.1455386698        0.8305054925       -0.4597977917E-01
AX       -0.5345692867       -0.1453221877        0.2463947048    
AX        0.3973979326        0.2487649683        0.7136751342    
AX        0.3261838110       -0.7911823471        0.4098528544    
    38
Energy=    -169.293878419158    
AX        0.4113651289        0.2093154436         1.784806996    
AX        0.9029935745       -0.9957126582       -0.5040474475    
AX         1.403727050        0.2860110765         1.223252813    
AX       -0.8891429637E-02     1.530329705       -0.8453110059    
AX         1.382208382        0.4344394105E-01   -0.7714396292    
AX       -0.8015665065        -1.827155139       -0.4247216533    
AX        -1.256189028       -0.4961257850        0.9571992304    
AX        0.4055767404         1.836545749        0.1256806044    
AX        -1.110209179        0.8109143550        0.4397288299    
AX        0.3243320441        -1.625655625         1.114141697    
AX        -1.414164162        0.3405075002        -1.419309361    
AX       -0.5153337421        0.9472910433        -1.632176447    
AX       -0.5776030167        0.3450952167         1.259030101    
AX        -1.111254335       -0.6951569712        -1.139010321    
AX       -0.5051398235       -0.1262805127        -1.894401937    
AX        0.2562529195        -1.781338946       -0.1963414708E-01
AX        -1.455656991        0.1230367833       -0.3367760079    
AX        0.8936496385        0.9500806196       -0.3067728177    
AX       -0.6825154035         1.784267711        0.1039367799    
AX         1.282881561       -0.3099554862        0.2964438502    
AX       -0.5885414066        -1.325303691        0.5603232315    
AX        0.9763521353         1.173153184        0.7725032984    
AX        0.9134320204       -0.6805101510         1.301974811    
AX        0.3507564812       -0.4951262542        -1.312653455    
AX        -1.322833188       -0.9070850602       -0.8787366121E-01
AX       -0.2524836455       -0.8934952499       -0.4900764391    
AX         1.218563165        -1.410207884        0.4840061178    
AX         1.794077852        0.6391305763        0.2150566090    
AX        -1.030869022         1.084271787       -0.6621855049    
AX       -0.1917936539       -0.6464414455         1.335856609    
AX        0.4443525525        0.5878385679        -1.229935094    
AX       -0.1122965079         1.265063938        0.9385366868    
AX        0.4209234046       -0.3313971863E-01   -0.3233842304    
AX       -0.4875774445        0.1496275081       -0.8367120799    
AX       -0.1455386501        0.8305054864       -0.4597972613E-01
AX       -0.5345692762       -0.1453221907        0.2463947081    
AX        0.3973979235        0.2487649222        0.7136751544    
AX        0.3261838383       -0.7911823449        0.4098528391    
    38
Energy=    -169.293878419157    
AX        0.4113651173        0.2093153995         1.784807028    
AX        0.9029935895       -0.9957126524       -0.5040474480    
AX         1.403727038        0.2860110796         1.223252787    
AX       -0.8891396073E-02     1.530329633       -0.8453109999    
AX         1.382208439        0.4344401829E-01   -0.7714395610    
AX       -0.8015665230        -1.827155111       -0.4247216482    
AX        -1.256189036       -0.4961257353        0.9571992362    
AX        0.4055766800         1.836545802        0.1256806196    
AX        -1.110209186        0.8109143167        0.4397288479    
AX        0.3243320424        -1.625655619         1.114141690    
AX        -1.414164140        0.3405075326        -1.419309353    
AX       -0.5153337172        0.9472910356        -1.632176465    
AX       -0.5776030152        0.3450952305         1.259030138    
AX        -1.111254328       -0.6951569350        -1.139010300    
AX       -0.5051397873       -0.1262805183        -1.894401924    
AX        0.2562529131        -1.781338949       -0.1963413897E-01
AX        -1.455656986        0.1230367816       -0.3367760190    
AX        0.8936496019        0.9500807263       -0.3067729303    
AX       -0.6825154513         1.784267695        0.1039368065    
AX         1.282881582       -0.3099555296        0.2964438636    
AX       -0.5885414112        -1.325303656        0.5603232246    
AX        0.9763520860         1.173153142        0.7725032036    
AX        0.9134320349       -0.6805101678         1.301974810    
AX        0.3507564910       -0.4951262980        -1.312653440    
AX        -1.322833235       -0.9070850530       -0.8787364993E-01
AX       -0.2524836407       -0.8934952370       -0.4900764252    
AX         1.218563170        -1.410207919        0.4840060922    
AX         1.794077772        0.6391305537        0.2150565193    
AX        -1.030868985         1.084271774       -0.6621854903    
AX       -0.1917936516       -0.6464414388         1.335856597    
AX        0.4443525883        0.5878385096        -1.229935169    
AX       -0.1122965189         1.265063958        0.9385367247    
AX        0.4209234467       -0.3313969863E-01   -0.3233842355    
AX       -0.4875774083        0.1496275230       -0.8367120703    
AX       -0.1455386472        0.8305054922       -0.4597966103E-01
AX       -0.5345692763       -0.1453221971        0.2463947111    
AX        0.3973979063        0.2487648793        0.7136752011    
AX        0.3261838423       -0.7911823672        0.4098528306    
    38
Energy=    -169.293878419155    
AX        0.4113651032        0.2093153378         1.784807091    
AX        0.9029936188       -0.9957126404       -0.5040474375    
AX         1.403727021        0.2860110890         1.223252761    
AX       -0.8891330591E-02     1.530329523       -0.8453109870    
AX         1.382208494        0.4344410846E-01   -0.7714394992    
AX       -0.8015665547        -1.827155067       -0.4247216357    
AX        -1.256189020       -0.4961257212        0.9571992648    
AX        0.4055766155         1.836545873        0.1256806353    
AX        -1.110209197        0.8109142667        0.4397288769    
AX        0.3243320368        -1.625655613         1.114141683    
AX        -1.414164094        0.3405075747        -1.419309348    
AX       -0.5153336836        0.9472910371        -1.632176486    
AX       -0.5776030184        0.3450952456         1.259030197    
AX        -1.111254321       -0.6951568859        -1.139010272    
AX       -0.5051397291       -0.1262805266        -1.894401900    
AX        0.2562529098        -1.781338945       -0.1963415764E-01
AX        -1.455656973        0.1230367979       -0.3367760437    
AX        0.8936495365        0.9500808639       -0.3067731051    
AX       -0.6825155005         1.784267680        0.1039368377    
AX         1.282881580       -0.3099555703        0.2964438847    
AX       -0.5885414277        -1.325303637        0.5603232150    
AX        0.9763520139         1.173153074        0.7725030665    
AX        0.9134320455       -0.6805101813         1.301974802    
AX        0.3507565096       -0.4951263598        -1.312653419    
AX        -1.322833270       -0.9070850333       -0.8787362546E-01
AX       -0.2524836400       -0.8934952286       -0.4900764166    
AX         1.218563165        -1.410207948        0.4840060687    
AX         1.794077652        0.6391305419        0.2150563951    
AX        -1.030868931         1.084271762       -0.6621854718    
AX       -0.1917936500       -0.6464414252         1.335856595    
AX        0.4443526369        0.5878384247        -1.229935291    
AX       -0.1122965321         1.265063990        0.9385367767    
AX        0.4209234915       -0.3313965002E-01   -0.3233842188    
AX       -0.4875773611        0.1496275511       -0.8367120558    
AX       -0.1455386267        0.8305054789       -0.4597957763E-01
AX       -0.5345692886       -0.1453222042        0.2463947182    
AX        0.3973978639        0.2487648134        0.7136752670    
AX        0.3261838555       -0.7911823966        0.4098528137    
    38
Energy=    -169.293878419153    
AX        0.4113651092        0.2093152957         1.784807141    
AX        0.9029936403       -0.9957126250       -0.5040474267    
AX         1.403727007        0.2860110990         1.223252752    
AX       -0.8891279534E-02     1.530329450       -0.8453109755    
AX         1.382208522        0.4344416505E-01   -0.7714394662    
AX       -0.8015665833        -1.827155045       -0.4247216206    
AX        -1.256189005       -0.4961257237        0.9571992874    
AX        0.4055765823         1.836545918        0.1256806445    
AX        -1.110209201        0.8109142360        0.4397288960    
AX        0.3243320250        -1.625655613         1.114141674    
AX        -1.414164056        0.3405075917        -1.419309356    
AX       -0.5153336593        0.9472910415        -1.632176494    
AX       -0.5776030173        0.3450952522         1.259030236    
AX        -1.111254321       -0.6951568604        -1.139010254    
AX       -0.5051396963       -0.1262805340        -1.894401881    
AX        0.2562529036        -1.781338936       -0.1963418629E-01
AX        -1.455656959        0.1230368103       -0.3367760634    
AX        0.8936494924        0.9500809542       -0.3067732268    
AX       -0.6825155227         1.784267664        0.1039368614    
AX         1.282881574       -0.3099555886        0.2964439022    
AX       -0.5885414376        -1.325303633        0.5603232119    
AX        0.9763519663         1.173153029        0.7725029780    
AX        0.9134320457       -0.6805101884         1.301974796    
AX        0.3507565227       -0.4951263951        -1.312653405    
AX        -1.322833281       -0.9070850163       -0.8787360716E-01
AX       -0.2524836409       -0.8934952250       -0.4900764187    
AX         1.218563150        -1.410207961        0.4840060657    
AX         1.794077569        0.6391305451        0.2150563082    
AX        -1.030868900         1.084271759       -0.6621854639    
AX       -0.1917936484       -0.6464414145         1.335856594    
AX        0.4443526683        0.5878383691        -1.229935375    
AX       -0.1122965426         1.265064013        0.9385368105    
AX        0.4209235290       -0.3313962048E-01   -0.3233842136    
AX       -0.4875773332        0.1496275681       -0.8367120489    
AX       -0.1455386181        0.8305054736       -0.4597952049E-01
AX       -0.5345693012       -0.1453222107        0.2463947264    
AX        0.3973978345        0.2487647747        0.7136753218    
AX        0.3261838634       -0.7911824196        0.4098527967    
    38
Energy=    -169.293878419152    
AX        0.4113651423        0.2093152388         1.784807212    
AX        0.9029936738       -0.9957125989       -0.5040474331    
AX         1.403726993        0.2860111086         1.223252750    
AX       -0.8891226919E-02     1.530329382       -0.8453109583    
AX         1.382208577        0.4344425668E-01   -0.7714394221    
AX       -0.8015666295        -1.827155044       -0.4247215730    
AX        -1.256189008       -0.4961256980        0.9571992964    
AX        0.4055765547         1.836545969        0.1256806590    
AX        -1.110209201        0.8109141905        0.4397289228    
AX        0.3243319894        -1.625655615         1.114141656    
AX        -1.414164015        0.3405075906        -1.419309377    
AX       -0.5153336249        0.9472910359        -1.632176493    
AX       -0.5776029996        0.3450952742         1.259030281    
AX        -1.111254332       -0.6951568516        -1.139010235    
AX       -0.5051396792       -0.1262805571        -1.894401865    
AX        0.2562528876        -1.781338928       -0.1963423865E-01
AX        -1.455656942        0.1230368092       -0.3367760849    
AX        0.8936494483        0.9500810695       -0.3067733500    
AX       -0.6825155416         1.784267629        0.1039368917    
AX         1.282881576       -0.3099555970        0.2964439303    
AX       -0.5885414388        -1.325303614        0.5603232194    
AX        0.9763519258         1.173152992        0.7725028921    
AX        0.9134320358       -0.6805102015         1.301974787    
AX        0.3507565322       -0.4951264233        -1.312653395    
AX        -1.322833304       -0.9070849931       -0.8787360019E-01
AX       -0.2524836419       -0.8934952154       -0.4900764314    
AX         1.218563131        -1.410207981        0.4840060666    
AX         1.794077473        0.6391305520        0.2150562102    
AX        -1.030868874         1.084271755       -0.6621854576    
AX       -0.1917936390       -0.6464414108         1.335856573    
AX        0.4443527058        0.5878383187        -1.229935459    
AX       -0.1122965473         1.265064039        0.9385368416    
AX        0.4209235454       -0.3313959455E-01   -0.3233841979    
AX       -0.4875772865        0.1496275679       -0.8367120376    
AX       -0.1455386147        0.8305054585       -0.4597945771E-01
AX       -0.5345692809       -0.1453222281        0.2463947218    
AX        0.3973978018        0.2487647219        0.7136753673    
AX        0.3261838348       -0.7911824069        0.4098527890    
    38
Energy=    -169.293878419150    
AX        0.4113651950        0.2093152018         1.784807273    
AX        0.9029937000       -0.9957125719       -0.5040474264    
AX         1.403726979        0.2860111243         1.223252757    
AX       -0.8891175739E-02     1.530329331       -0.8453109403    
AX         1.382208600        0.4344431163E-01   -0.7714393995    
AX       -0.8015666789        -1.827155041       -0.4247215430    
AX        -1.256189003       -0.4961256964        0.9571993188    
AX        0.4055765383         1.836546006        0.1256806729    
AX        -1.110209213        0.8109141676        0.4397289389    
AX        0.3243319596        -1.625655630         1.114141633    
AX        -1.414163974        0.3405075710        -1.419309421    
AX       -0.5153335881        0.9472910306        -1.632176491    
AX       -0.5776029796        0.3450952775         1.259030303    
AX        -1.111254348       -0.6951568552        -1.139010216    
AX       -0.5051396699       -0.1262805811        -1.894401845    
AX        0.2562528637        -1.781338912       -0.1963429856E-01
AX        -1.455656922        0.1230368187       -0.3367761133    
AX        0.8936494084        0.9500811552       -0.3067734502    
AX       -0.6825155483         1.784267594        0.1039369264    
AX         1.282881574       -0.3099556032        0.2964439567    
AX       -0.5885414454        -1.325303616        0.5603232241    
AX        0.9763518893         1.173152967        0.7725028320    
AX        0.9134320217       -0.6805102111         1.301974779    
AX        0.3507565485       -0.4951264399        -1.312653391    
AX        -1.322833300       -0.9070849707       -0.8787357660E-01
AX       -0.2524836488       -0.8934952106       -0.4900764499    
AX         1.218563101        -1.410207992        0.4840060856    
AX         1.794077401        0.6391305689        0.2150561193    
AX        -1.030868860         1.084271761       -0.6621854712    
AX       -0.1917936294       -0.6464414050         1.335856561    
AX        0.4443527338        0.5878382788        -1.229935520    
AX       -0.1122965622         1.265064065        0.9385368792    
AX        0.4209235776       -0.3313957029E-01   -0.3233841868    
AX       -0.4875772676        0.1496275725       -0.8367120325    
AX       -0.1455386135        0.8305054570       -0.4597940770E-01
AX       -0.5345692824       -0.1453222381        0.2463947329    
AX        0.3973977847        0.2487646896        0.7136754158    
AX        0.3261838354       -0.7911824051        0.4098527701    
    38
Energy=    -169.293878419149    
AX        0.4113652198        0.2093151962         1.784807283    
AX        0.9029937035       -0.9957125641       -0.5040474320    
AX         1.403726976        0.2860111249         1.223252762    
AX       -0.8891175591E-02     1.530329335       -0.8453109356    
AX         1.382208609        0.4344433215E-01   -0.7714393910    
AX       -0.8015666927        -1.827155051       -0.4247215260    
AX        -1.256189013       -0.4961256782        0.9571993091    
AX        0.4055765404         1.836546007        0.1256806762    
AX        -1.110209214        0.8109141609        0.4397289414    
AX        0.3243319478        -1.625655633         1.114141625    
AX        -1.414163968        0.3405075545        -1.419309436    
AX       -0.5153335774        0.9472910218        -1.632176484    
AX       -0.5776029650        0.3450952796         1.259030302    
AX        -1.111254356       -0.6951568675        -1.139010213    
AX       -0.5051396817       -0.1262805927        -1.894401843    
AX        0.2562528541        -1.781338907       -0.1963431328E-01
AX        -1.455656919        0.1230368147       -0.3367761167    
AX        0.8936494066        0.9500811657       -0.3067734482    
AX       -0.6825155466         1.784267578        0.1039369340    
AX         1.282881575       -0.3099556031        0.2964439618    
AX       -0.5885414476        -1.325303608        0.5603232258    
AX        0.9763518938         1.173152973        0.7725028388    
AX        0.9134320149       -0.6805102164         1.301974778    
AX        0.3507565488       -0.4951264329        -1.312653396    
AX        -1.322833302       -0.9070849705       -0.8787357637E-01
AX       -0.2524836515       -0.8934952128       -0.4900764600    
AX         1.218563092        -1.410207992        0.4840060895    
AX         1.794077398        0.6391305713        0.2150561098    
AX        -1.030868867         1.084271760       -0.6621854787    
AX       -0.1917936276       -0.6464414044         1.335856556    
AX        0.4443527382        0.5878382828        -1.229935513    
AX       -0.1122965615         1.265064070        0.9385368806    
AX        0.4209235860       -0.3313957151E-01   -0.3233841865    
AX       -0.4875772699        0.1496275645       -0.8367120339    
AX       -0.1455386168        0.8305054581       -0.4597940645E-01
AX       -0.5345692762       -0.1453222417        0.2463947324    
AX        0.3973977897        0.2487646904        0.7136754175    
AX        0.3261838362       -0.7911823943        0.4098527682    
    38
Energy=    -169.293878419141    
AX        0.4113652571        0.2093152204         1.784807253    
AX        0.9029936949       -0.9957125598       -0.5040474657    
AX         1.403726997        0.2860111063         1.223252765    
AX       -0.8891231158E-02     1.530329392       -0.8453109244    
AX         1.382208591        0.4344435505E-01   -0.7714393688    
AX       -0.8015667200        -1.827155041       -0.4247215100    
AX        -1.256189036       -0.4961256159        0.9571992710    
AX        0.4055765364         1.836545981        0.1256806958    
AX        -1.110209235        0.8109141554        0.4397289277    
AX        0.3243319545        -1.625655638         1.114141596    
AX        -1.414163970        0.3405075053        -1.419309469    
AX       -0.5153335447        0.9472909610        -1.632176480    
AX       -0.5776029136        0.3450952958         1.259030244    
AX        -1.111254370       -0.6951569116        -1.139010200    
AX       -0.5051397161       -0.1262806552        -1.894401842    
AX        0.2562528372        -1.781338920       -0.1963432791E-01
AX        -1.455656949        0.1230368110       -0.3367761286    
AX        0.8936494226        0.9500811323       -0.3067733276    
AX       -0.6825155630         1.784267554        0.1039369281    
AX         1.282881568       -0.3099556192        0.2964439472    
AX       -0.5885414566        -1.325303574        0.5603232260    
AX        0.9763519427         1.173153018        0.7725029325    