    38
Energy=    -172.877736411173    
AX        0.3778526843        0.3342479261E-01     1.394544243    
AX        0.9145078368        -1.035031547       -0.3945479550    
AX         1.266816807         1.238490671        0.8140767784    
AX        0.4765448206         1.684267135       -0.8843869155    
AX         1.350586802       -0.5090568568E-02   -0.5110602997    
AX       -0.9294217662        -1.625882408       -0.4774684668    
AX        -1.261699611       -0.4214536452E-02    0.5466360464    
AX       -0.4752461788         1.800620874       -0.3024087950    
AX       -0.6830959992        0.4786974665         1.408714498    
AX        0.1095425273        -1.532891323         1.155606664    
AX        -1.283139211        0.3936522110        -1.363424878    
AX       -0.4046000786         1.043089906        -1.126098098    
AX       -0.2057322495        0.1670584781        0.5050474800    
AX        -1.111525474       -0.6178476772       -0.9232910261    
AX       -0.2573542641       -0.3956425115E-01    -1.355250238    
AX        0.6098711774E-01    -1.618459940        0.3832186841E-01
AX        -1.803150574        0.1074078889       -0.4130503772    
AX         1.206074534         1.078592136       -0.2873825168    
AX       -0.8267778215         1.034992746        0.4156932049    
AX         1.496357547       -0.5716659064        0.4425466579    
AX       -0.8897214223        -1.538737561        0.6383575863    
AX        0.5330606379         1.837123759        0.2189455526    
AX         1.006198344       -0.8803069631         1.412039140    
AX        0.7705452643       -0.4723880002        -1.343836173    
AX        -1.626406454       -0.9132581879        0.3135130907E-01
AX       -0.7993186257E-01    -1.050231478       -0.9116050957    
AX         1.052677041        -1.596957900        0.5542513858    
AX         1.924440915        0.4653900355        0.3225215343    
AX        -1.362668223         1.151500238       -0.5454806029    
AX       -0.5247020816       -0.6250824612         1.149557226    
AX        0.6254397964        0.6069736461        -1.115406476    
AX        0.1763698427         1.069347925        0.9375317078    
AX        0.2775259311       -0.1478655154       -0.4074740394    
AX       -0.7306154899        0.2769084449       -0.4135423152    
AX        0.1327664156        0.9076156030       -0.1763402887    
AX       -0.5584045892       -0.7115534675        0.1930815871E-01
AX        0.8461475348        0.3106231500        0.4232404751    
AX        0.4097509530       -0.6987474134        0.5237630409    
    38
Energy=    -172.877736411172    
AX        0.3778526929        0.3342478575E-01     1.394544244    
AX        0.9145078433        -1.035031548       -0.3945479523    
AX         1.266816815         1.238490668        0.8140767673    
AX        0.4765448156         1.684267148       -0.8843869110    
AX         1.350586801       -0.5090565644E-02   -0.5110603000    
AX       -0.9294217633        -1.625882408       -0.4774684666    
AX        -1.261699610       -0.4214517597E-02    0.5466360330    
AX       -0.4752461910         1.800620889       -0.3024087980    
AX       -0.6830959943        0.4786974745         1.408714503    
AX        0.1095425194        -1.532891323         1.155606667    
AX        -1.283139207        0.3936522038        -1.363424881    
AX       -0.4046000794         1.043089907        -1.126098095    
AX       -0.2057322554        0.1670584836        0.5050474459    
AX        -1.111525474       -0.6178476869       -0.9232910290    
AX       -0.2573542603       -0.3956425168E-01    -1.355250239    
AX        0.6098712103E-01    -1.618459945        0.3832186831E-01
AX        -1.803150579        0.1074078813       -0.4130503897    
AX         1.206074528         1.078592135       -0.2873825182    
AX       -0.8267778108         1.034992752        0.4156932073    
AX         1.496357549       -0.5716659044        0.4425466654    
AX       -0.8897214239        -1.538737566        0.6383575833    
AX        0.5330606364         1.837123758        0.2189455608    
AX         1.006198332       -0.8803069709         1.412039149    
AX        0.7705452625       -0.4723880009        -1.343836174    
AX        -1.626406450       -0.9132581848        0.3135132070E-01
AX       -0.7993186115E-01    -1.050231481       -0.9116050967    
AX         1.052677036        -1.596957899        0.5542513918    
AX         1.924440922        0.4653900365        0.3225215177    
AX        -1.362668225         1.151500236       -0.5454805968    
AX       -0.5247020904       -0.6250824660         1.149557222    
AX        0.6254397923        0.6069736498        -1.115406470    
AX        0.1763698515         1.069347919        0.9375317134    
AX        0.2775259188       -0.1478654973       -0.4074740333    
AX       -0.7306154684        0.2769084406       -0.4135423023    
AX        0.1327663973        0.9076155824       -0.1763402796    
AX       -0.5584045855       -0.7115534641        0.1930815977E-01
AX        0.8461475388        0.3106231526        0.4232404695    
AX        0.4097509560       -0.6987474236        0.5237630444    
    38
Energy=    -172.877736411172    
AX        0.3778526779        0.3342482319E-01     1.394544250    
AX        0.9145078251        -1.035031543       -0.3945479551    
AX         1.266816788         1.238490680        0.8140768009    
AX        0.4765448320         1.684267102       -0.8843869413    
AX         1.350586803       -0.5090567914E-02   -0.5110602937    
AX       -0.9294217624        -1.625882406       -0.4774684789    
AX        -1.261699606       -0.4214606915E-02    0.5466360885    
AX       -0.4752461541         1.800620828       -0.3024087792    
AX       -0.6830960138        0.4786974515         1.408714497    
AX        0.1095425488        -1.532891337         1.155606652    
AX        -1.283139217        0.3936522335        -1.363424867    
AX       -0.4046000778         1.043089906        -1.126098108    
AX       -0.2057322585        0.1670584818        0.5050474811    
AX        -1.111525472       -0.6178476512       -0.9232910227    
AX       -0.2573542708       -0.3956424620E-01    -1.355250235    
AX        0.6098711320E-01    -1.618459932        0.3832186804E-01
AX        -1.803150566        0.1074079112       -0.4130503288    
AX         1.206074570         1.078592138       -0.2873825254    
AX       -0.8267778622         1.034992712        0.4156932020    
AX         1.496357535       -0.5716659083        0.4425466512    
AX       -0.8897214276        -1.538737532        0.6383575926    
AX        0.5330606668         1.837123759        0.2189455223    
AX         1.006198346       -0.8803069450         1.412039131    
AX        0.7705452633       -0.4723880011        -1.343836177    
AX        -1.626406469       -0.9132582041        0.3135126355E-01
AX       -0.7993186642E-01    -1.050231475       -0.9116051021    
AX         1.052677053        -1.596957902        0.5542513723    
AX         1.924440899        0.4653900324        0.3225215809    
AX        -1.362668232         1.151500255       -0.5454806110    
AX       -0.5247020459       -0.6250824634         1.149557246    
AX        0.6254398015        0.6069736294        -1.115406490    
AX        0.1763698097         1.069347957        0.9375316836    
AX        0.2775259283       -0.1478655229       -0.4074740408    
AX       -0.7306154912        0.2769084597       -0.4135423051    
AX        0.1327664451        0.9076155912       -0.1763403003    
AX       -0.5584045936       -0.7115534597        0.1930815625E-01
AX        0.8461475331        0.3106231600        0.4232404787    
AX        0.4097509494       -0.6987474086        0.5237630435    
    38
Energy=    -172.877736411172    
AX        0.3778526819        0.3342484937E-01     1.394544250    
AX        0.9145078240        -1.035031543       -0.3945479552    
AX         1.266816775         1.238490683        0.8140768063    
AX        0.4765448371         1.684267088       -0.8843869575    
AX         1.350586798       -0.5090564806E-02   -0.5110602867    
AX       -0.9294217512        -1.625882404       -0.4774684900    
AX        -1.261699602       -0.4214646230E-02    0.5466361103    
AX       -0.4752461468         1.800620805       -0.3024087704    
AX       -0.6830960214        0.4786974489         1.408714497    
AX        0.1095425571        -1.532891350         1.155606650    
AX        -1.283139219        0.3936522490        -1.363424845    
AX       -0.4046000770         1.043089905        -1.126098110    
AX       -0.2057322599        0.1670584829        0.5050474806    
AX        -1.111525472       -0.6178476397       -0.9232910296    
AX       -0.2573542727       -0.3956424346E-01    -1.355250237    
AX        0.6098711664E-01    -1.618459926        0.3832186543E-01
AX        -1.803150562        0.1074079295       -0.4130502945    
AX         1.206074590         1.078592135       -0.2873825352    
AX       -0.8267778872         1.034992695        0.4156932041    
AX         1.496357537       -0.5716659116        0.4425466449    
AX       -0.8897214335        -1.538737510        0.6383575878    
AX        0.5330606895         1.837123748        0.2189454999    
AX         1.006198331       -0.8803069335         1.412039134    
AX        0.7705452578       -0.4723880111        -1.343836176    
AX        -1.626406477       -0.9132582127        0.3135122849E-01
AX       -0.7993186877E-01    -1.050231475       -0.9116051098    
AX         1.052677057        -1.596957902        0.5542513754    
AX         1.924440896        0.4653900349        0.3225216118    
AX        -1.362668243         1.151500268       -0.5454806043    
AX       -0.5247020167       -0.6250824680         1.149557255    
AX        0.6254398030        0.6069736182        -1.115406496    
AX        0.1763697840         1.069347976        0.9375316702    
AX        0.2775259233       -0.1478655243       -0.4074740418    
AX       -0.7306154899        0.2769084680       -0.4135422986    
AX        0.1327664556        0.9076155785       -0.1763403058    
AX       -0.5584045954       -0.7115534564        0.1930814985E-01
AX        0.8461475319        0.3106231653        0.4232404795    
AX        0.4097509507       -0.6987474073        0.5237630437    
    38
Energy=    -172.877736411171    
AX        0.3778526970        0.3342488770E-01     1.394544241    
AX        0.9145078278        -1.035031543       -0.3945479542    
AX         1.266816763         1.238490677        0.8140768031    
AX        0.4765448398         1.684267085       -0.8843869706    
AX         1.350586788       -0.5090561829E-02   -0.5110602798    
AX       -0.9294217330        -1.625882402       -0.4774685030    
AX        -1.261699599       -0.4214680803E-02    0.5466361237    
AX       -0.4752461482         1.800620790       -0.3024087552    
AX       -0.6830960240        0.4786974546         1.408714499    
AX        0.1095425565        -1.532891372         1.155606651    
AX        -1.283139222        0.3936522627        -1.363424814    
AX       -0.4046000778         1.043089906        -1.126098106    
AX       -0.2057322498        0.1670584820        0.5050474845    
AX        -1.111525472       -0.6178476328       -0.9232910421    
AX       -0.2573542727       -0.3956424014E-01    -1.355250243    
AX        0.6098712534E-01    -1.618459924        0.3832186014E-01
AX        -1.803150555        0.1074079499       -0.4130502620    
AX         1.206074602         1.078592128       -0.2873825478    
AX       -0.8267779126         1.034992679        0.4156932105    
AX         1.496357542       -0.5716659115        0.4425466464    
AX       -0.8897214407        -1.538737489        0.6383575752    
AX        0.5330607209         1.837123729        0.2189454741    
AX         1.006198294       -0.8803069209         1.412039150    
AX        0.7705452490       -0.4723880268        -1.343836174    
AX        -1.626406481       -0.9132582217        0.3135119345E-01
AX       -0.7993186883E-01    -1.050231476       -0.9116051201    
AX         1.052677058        -1.596957896        0.5542513923    
AX         1.924440903        0.4653900359        0.3225216337    
AX        -1.362668257         1.151500284       -0.5454805900    
AX       -0.5247019793       -0.6250824770         1.149557266    
AX        0.6254398040        0.6069736123        -1.115406498    
AX        0.1763697556         1.069347993        0.9375316522    
AX        0.2775259196       -0.1478655295       -0.4074740425    
AX       -0.7306154936        0.2769084744       -0.4135422976    
AX        0.1327664576        0.9076155729       -0.1763403082    
AX       -0.5584045940       -0.7115534570        0.1930813721E-01
AX        0.8461475240        0.3106231657        0.4232404750    
AX        0.4097509527       -0.6987474051        0.5237630397    
    38
Energy=    -172.877736411170    
AX        0.3778527042        0.3342490288E-01     1.394544234    
AX        0.9145078299        -1.035031542       -0.3945479527    
AX         1.266816763         1.238490672        0.8140767990    
AX        0.4765448388         1.684267088       -0.8843869744    
AX         1.350586782       -0.5090558834E-02   -0.5110602780    
AX       -0.9294217246        -1.625882401       -0.4774685082    
AX        -1.261699599       -0.4214692162E-02    0.5466361266    
AX       -0.4752461523         1.800620785       -0.3024087481    
AX       -0.6830960226        0.4786974594         1.408714501    
AX        0.1095425532        -1.532891385         1.155606652    
AX        -1.283139221        0.3936522663        -1.363424803    
AX       -0.4046000788         1.043089908        -1.126098104    
AX       -0.2057322376        0.1670584803        0.5050474859    
AX        -1.111525470       -0.6178476308       -0.9232910462    
AX       -0.2573542718       -0.3956423833E-01    -1.355250245    
AX        0.6098712883E-01    -1.618459926        0.3832185878E-01
AX        -1.803150550        0.1074079559       -0.4130502522    
AX         1.206074607         1.078592127       -0.2873825550    
AX       -0.8267779234         1.034992674        0.4156932140    
AX         1.496357542       -0.5716659090        0.4425466516    
AX       -0.8897214438        -1.538737483        0.6383575694    
AX        0.5330607357         1.837123719        0.2189454639    
AX         1.006198273       -0.8803069195         1.412039162    
AX        0.7705452451       -0.4723880322        -1.343836173    
AX        -1.626406481       -0.9132582247        0.3135118254E-01
AX       -0.7993186773E-01    -1.050231478       -0.9116051240    
AX         1.052677058        -1.596957893        0.5542514009    
AX         1.924440908        0.4653900350        0.3225216369    
AX        -1.362668264         1.151500289       -0.5454805830    
AX       -0.5247019648       -0.6250824818         1.149557271    
AX        0.6254398033        0.6069736126        -1.115406498    
AX        0.1763697467         1.069347997        0.9375316444    
AX        0.2775259174       -0.1478655305       -0.4074740413    
AX       -0.7306154952        0.2769084782       -0.4135422998    
AX        0.1327664571        0.9076155705       -0.1763403081    
AX       -0.5584045928       -0.7115534592        0.1930813203E-01
AX        0.8461475166        0.3106231657        0.4232404715    
AX        0.4097509511       -0.6987474025        0.5237630383    
    38
Energy=    -172.877736411164    
AX        0.3778526957        0.3342489828E-01     1.394544222    
AX        0.9145078312        -1.035031539       -0.3945479506    
AX         1.266816781         1.238490667        0.8140768039    
AX        0.4765448340         1.684267098       -0.8843869710    
AX         1.350586781       -0.5090556566E-02   -0.5110602868    
AX       -0.9294217266        -1.625882402       -0.4774685022    
AX        -1.261699620       -0.4214691193E-02    0.5466361265    
AX       -0.4752461564         1.800620785       -0.3024087425    
AX       -0.6830960250        0.4786974622         1.408714511    
AX        0.1095425506        -1.532891389         1.155606652    
AX        -1.283139211        0.3936522629        -1.363424816    
AX       -0.4046000827         1.043089912        -1.126098106    
AX       -0.2057321671        0.1670584590        0.5050474749    
AX        -1.111525464       -0.6178476322       -0.9232910419    
AX       -0.2573542711       -0.3956423463E-01    -1.355250245    
AX        0.6098712586E-01    -1.618459929        0.3832186112E-01
AX        -1.803150550        0.1074079423       -0.4130502625    
AX         1.206074614         1.078592136       -0.2873825620    
AX       -0.8267779330         1.034992690        0.4156932087    
AX         1.496357534       -0.5716659051        0.4425466604    
AX       -0.8897214385        -1.538737489        0.6383575738    
AX        0.5330607424         1.837123725        0.2189454767    
AX         1.006198267       -0.8803069311         1.412039171    
AX        0.7705452463       -0.4723880242        -1.343836177    
AX        -1.626406478       -0.9132582247        0.3135119527E-01
AX       -0.7993186689E-01    -1.050231483       -0.9116051221    
AX         1.052677063        -1.596957895        0.5542513996    
AX         1.924440914        0.4653900296        0.3225216167    
AX        -1.362668266         1.151500280       -0.5454805874    
AX       -0.5247019716       -0.6250824811         1.149557267    
AX        0.6254397972        0.6069736165        -1.115406499    
AX        0.1763697595         1.069347995        0.9375316462    
AX        0.2775259088       -0.1478655083       -0.4074740264    
AX       -0.7306154912        0.2769084888       -0.4135423159    
AX        0.1327664592        0.9076155469       -0.1763403057    
AX       -0.5584045938       -0.7115534681        0.1930814144E-01
AX        0.8461474824        0.3106231636        0.4232404675    
AX        0.4097509272       -0.6987473738        0.5237630444    
    38
Energy=    -172.877736411166    
AX        0.3778527693        0.3342503781E-01     1.394544223    
AX        0.9145078625        -1.035031565       -0.3945479439    
AX         1.266816713         1.238490630        0.8140767914    
AX        0.4765448357         1.684267079       -0.8843869908    
AX         1.350586803       -0.5090601157E-02   -0.5110602700    
AX       -0.9294216845        -1.625882411       -0.4774685486    
AX        -1.261699567       -0.4214765678E-02    0.5466361433    
AX       -0.4752461386         1.800620813       -0.3024086865    
AX       -0.6830960162        0.4786974595         1.408714505    
AX        0.1095425188        -1.532891429         1.155606624    
AX        -1.283139288        0.3936522864        -1.363424749    
AX       -0.4046000919         1.043089913        -1.126098067    
AX       -0.2057322474        0.1670584888        0.5050474917    
AX        -1.111525490       -0.6178476296       -0.9232910838    
AX       -0.2573542927       -0.3956422106E-01    -1.355250253    
AX        0.6098714928E-01    -1.618459912        0.3832184162E-01
AX        -1.803150555        0.1074079869       -0.4130501952    
AX         1.206074582         1.078592076       -0.2873825631    
AX       -0.8267779567         1.034992632        0.4156932339    
AX         1.496357564       -0.5716659117        0.4425467025    
AX       -0.8897214449        -1.538737445        0.6383575335    
AX        0.5330607905         1.837123720        0.2189454056    
AX         1.006198167       -0.8803068744         1.412039212    
AX        0.7705452512       -0.4723880607        -1.343836169    
AX        -1.626406478       -0.9132582419        0.3135109381E-01
AX       -0.7993186191E-01    -1.050231473       -0.9116051526    
AX         1.052677053        -1.596957866        0.5542514677    
AX         1.924440913        0.4653900329        0.3225216448    
AX        -1.362668254         1.151500332       -0.5454805401    
AX       -0.5247018694       -0.6250824792         1.149557307    
AX        0.6254398114        0.6069735974        -1.115406501    
AX        0.1763696987         1.069348034        0.9375315940    
AX        0.2775259262       -0.1478655526       -0.4074740598    
AX       -0.7306155142        0.2769084653       -0.4135422941    
AX        0.1327664359        0.9076155821       -0.1763403052    
AX       -0.5584045816       -0.7115534556        0.1930809349E-01
AX        0.8461475216        0.3106231401        0.4232404422    
AX        0.4097509678       -0.6987474110        0.5237630225    
    38
Energy=    -172.877736411158    
AX        0.3778528253        0.3342519453E-01     1.394544234    
AX        0.9145079086        -1.035031616       -0.3945479412    
AX         1.266816627         1.238490576        0.8140768261    
AX        0.4765448401         1.684267039       -0.8843870018    
AX         1.350586878       -0.5090699631E-02   -0.5110602749    
AX       -0.9294216669        -1.625882442       -0.4774685839    
AX        -1.261699544       -0.4214850994E-02    0.5466361725    
AX       -0.4752460805         1.800620882       -0.3024086116    
AX       -0.6830960310        0.4786974272         1.408714511    
AX        0.1095424901        -1.532891425         1.155606572    
AX        -1.283139413        0.3936523108        -1.363424724    
AX       -0.4046001132         1.043089908        -1.126098021    
AX       -0.2057322337        0.1670584733        0.5050474770    
AX        -1.111525532       -0.6178476367       -0.9232911269    
AX       -0.2573543386       -0.3956419682E-01    -1.355250249    
AX        0.6098716235E-01    -1.618459872        0.3832181702E-01
AX        -1.803150597        0.1074080038       -0.4130501424    
AX         1.206074524         1.078591997       -0.2873825375    
AX       -0.8267779762         1.034992606        0.4156932353    
AX         1.496357602       -0.5716659404        0.4425467505    
AX       -0.8897214184        -1.538737410        0.6383575089    
AX        0.5330608076         1.837123790        0.2189453755    
AX         1.006198118       -0.8803067966         1.412039226    
AX        0.7705452868       -0.4723880757        -1.343836170    
AX        -1.626406472       -0.9132582560        0.3135099557E-01
AX       -0.7993186241E-01    -1.050231460       -0.9116051826    
AX         1.052677053        -1.596957843        0.5542515312    
AX         1.924440883        0.4653900329        0.3225216459    
AX        -1.362668186         1.151500376       -0.5454805147    
AX       -0.5247017816       -0.6250824430         1.149557345    
AX        0.6254398257        0.6069735598        -1.115406511    
AX        0.1763696671         1.069348085        0.9375315527    
AX        0.2775259478       -0.1478655541       -0.4074740833    
AX       -0.7306155360        0.2769084350       -0.4135422897    
AX        0.1327664123        0.9076155743       -0.1763403036    
AX       -0.5584045769       -0.7115534466        0.1930807024E-01
AX        0.8461475254        0.3106230855        0.4232404125    
AX        0.4097509750       -0.6987473913        0.5237630101    
    38
Energy=    -172.877736411155    
AX        0.3778528298        0.3342521458E-01     1.394544244    
AX        0.9145079166        -1.035031630       -0.3945479443    
AX         1.266816604         1.238490572        0.8140768391    
AX        0.4765448455         1.684267024       -0.8843870049    
AX         1.350586898       -0.5090722261E-02   -0.5110602750    
AX       -0.9294216699        -1.625882450       -0.4774685868    
AX        -1.261699540       -0.4214865561E-02    0.5466361808    
AX       -0.4752460621         1.800620895       -0.3024086032    
AX       -0.6830960407        0.4786974148         1.408714511    
AX        0.1095424907        -1.532891411         1.155606562    
AX        -1.283139442        0.3936523167        -1.363424723    
AX       -0.4046001150         1.043089903        -1.126098014    
AX       -0.2057322404        0.1670584664        0.5050474726    
AX        -1.111525542       -0.6178476387       -0.9232911356    
AX       -0.2573543490       -0.3956419364E-01    -1.355250247    
AX        0.6098716257E-01    -1.618459858        0.3832181200E-01
AX        -1.803150610        0.1074080067       -0.4130501321    
AX         1.206074511         1.078591980       -0.2873825260    
AX       -0.8267779751         1.034992604        0.4156932315    
AX         1.496357613       -0.5716659513        0.4425467477    
AX       -0.8897214109        -1.538737405        0.6383575081    
AX        0.5330607996         1.837123812        0.2189453751    
AX         1.006198131       -0.8803067795         1.412039214    
AX        0.7705452969       -0.4723880781        -1.343836170    
AX        -1.626406473       -0.9132582577        0.3135097694E-01
AX       -0.7993186571E-01    -1.050231455       -0.9116051865    
AX         1.052677053        -1.596957842        0.5542515352    
AX         1.924440870        0.4653900367        0.3225216542    
AX        -1.362668166         1.151500383       -0.5454805157    
AX       -0.5247017716       -0.6250824314         1.149557350    
AX        0.6254398313        0.6069735480        -1.115406514    
AX        0.1763696635         1.069348097        0.9375315521    
AX        0.2775259532       -0.1478655520       -0.4074740882    
AX       -0.7306155387        0.2769084261       -0.4135422854    
AX        0.1327664112        0.9076155712       -0.1763403056    
AX       -0.5584045786       -0.7115534399        0.1930807066E-01
AX        0.8461475324        0.3106230746        0.4232404127    
AX        0.4097509777       -0.6987473854        0.5237630080    
    38
Energy=    -172.877736411108    
AX        0.3778527419        0.3342501235E-01     1.394544370    
AX        0.9145079095        -1.035031720       -0.3945480430    
AX         1.266816500         1.238490692        0.8140768983    
AX        0.4765449400         1.684266975       -0.8843870206    
AX         1.350586906       -0.5090690170E-02   -0.5110602383    
AX       -0.9294217635        -1.625882488       -0.4774685067    
AX        -1.261699554       -0.4214801173E-02    0.5466362088    
AX       -0.4752460123         1.800620831       -0.3024087572    
AX       -0.6830961820        0.4786973818         1.408714525    
AX        0.1095425716        -1.532891258         1.155606624    
AX        -1.283139504        0.3936523457        -1.363424741    
AX       -0.4046000389         1.043089818        -1.126098044    
AX       -0.2057323068        0.1670582900        0.5050474744    
AX        -1.111525579       -0.6178476393       -0.9232911574    
AX       -0.2573543439       -0.3956422899E-01    -1.355250257    
AX        0.6098712770E-01    -1.618459759        0.3832184114E-01
AX        -1.803150647        0.1074080635       -0.4130501085    
AX         1.206074492         1.078591977       -0.2873824214    
AX       -0.8267779429         1.034992686        0.4156931681    
AX         1.496357702       -0.5716660153        0.4425464626    
AX       -0.8897213627        -1.538737467        0.6383575375    
AX        0.5330606402         1.837123847        0.2189453992    
AX         1.006198497       -0.8803067552         1.412038949    
AX        0.7705453342       -0.4723881283        -1.343836125    
AX        -1.626406505       -0.9132581984        0.3135097462E-01
AX       -0.7993193242E-01    -1.050231464       -0.9116051557    
AX         1.052677051        -1.596957871        0.5542514274    
AX         1.924440783        0.4653901033        0.3225218703    
AX        -1.362668136         1.151500394       -0.5454805884    
AX       -0.5247018401       -0.6250823950         1.149557297    
AX        0.6254399093        0.6069735147        -1.115406539    
AX        0.1763696951         1.069348113        0.9375317003    
AX        0.2775259617       -0.1478655770       -0.4074740722    
AX       -0.7306155364        0.2769083996       -0.4135422573    
AX        0.1327664860        0.9076155841       -0.1763403551    
AX       -0.5584046068       -0.7115533238        0.1930815395E-01
AX        0.8461475786        0.3106230445        0.4232405404    
AX        0.4097509692       -0.6987472931        0.5237629668    
    38
Energy=    -172.877736411127    
AX        0.3778528768        0.3342550984E-01     1.394544163    
AX        0.9145079186        -1.035031609       -0.3945478780    
AX         1.266816618         1.238490327        0.8140769391    
AX        0.4765447893         1.684267040       -0.8843869574    
AX         1.350586943       -0.5090833773E-02   -0.5110603558    
AX       -0.9294216242        -1.625882456       -0.4774686310    
AX        -1.261699535       -0.4214950086E-02    0.5466361945    
AX       -0.4752460328         1.800620981       -0.3024084104    
AX       -0.6830959691        0.4786974166         1.408714462    
AX        0.1095425051        -1.532891469         1.155606527    
AX        -1.283139442        0.3936523425        -1.363424745    
AX       -0.4046001966         1.043089983        -1.126097987    
AX       -0.2057322404        0.1670585595        0.5050474135    
AX        -1.111525525       -0.6178476427       -0.9232911335    
AX       -0.2573543828       -0.3956415869E-01    -1.355250241    
AX        0.6098722785E-01    -1.618459936        0.3832176697E-01
AX        -1.803150637        0.1074079823       -0.4130501345    
AX         1.206074512         1.078591938       -0.2873825506    
AX       -0.8267780112         1.034992547        0.4156932315    
AX         1.496357567       -0.5716659566        0.4425469119    
AX       -0.8897213793        -1.538737357        0.6383575070    
AX        0.5330609417         1.837123841        0.2189454533    