    38
Energy=    -170.231263132034    
AX        0.3620913133        0.2366514314         1.818662525    
AX        0.9594850881       -0.9960054332       -0.5113484178    
AX         1.410398017        0.2306742811         1.270202829    
AX       -0.7560122195E-01     1.353014172       -0.8670157882    
AX         1.524796045       -0.4017304920E-01   -0.6741703047    
AX       -0.7678364702        -1.741049174       -0.5334105446    
AX        -1.263645183       -0.4925735142        0.8798137838    
AX        0.5884127009         1.527059530        0.7926866843E-01
AX        -1.168562977         1.224466277        0.5584181066    
AX        0.2394231743        -1.629002282         1.086422207    
AX        -1.347225776        0.4851645643E-01    -1.006126359    
AX       -0.8306868292        0.8623045466        -1.587220775    
AX       -0.6044797433        0.4315350156         1.084320962    
AX        -1.007676456       -0.9792692477        -1.301321180    
AX       -0.4450473406       -0.1782359426        -1.773029403    
AX        0.2535738400        -1.779376646       -0.9021752672E-01
AX        -1.412931276        0.2670993813        0.9918693327E-01
AX        0.8777462978        0.8527837852       -0.8002413840    
AX       -0.4819295323         1.885427692       -0.1718442879E-02
AX         1.361243015       -0.4094000905        0.3681835816    
AX       -0.6027428925        -1.280674611        0.4527192218    
AX        0.8284564848         1.137870191         1.125193383    
AX        0.8659495589       -0.7156161163         1.331196309    
AX        0.5664140998       -0.2772489606        -1.283245961    
AX        -1.254137191       -0.7662124173       -0.2557041641    
AX       -0.1479876603       -0.8246471053       -0.6128794824    
AX         1.195686436        -1.501927775        0.5019554438    
AX         1.267346700        0.6657926359        0.2204212319    
AX        -1.072147659         1.067865239       -0.5375374288    
AX       -0.2240344402       -0.5860332625         1.256086405    
AX        0.2511373177        0.6888557617        -1.690109142    
AX       -0.1846892454         1.465035921        0.9857269977    
AX        0.5301288135        0.4884134691E-02   -0.2537071599    
AX       -0.3218405557        0.2711258157       -0.8045797745    
AX       -0.2056969244        0.8175404068        0.1116293865    
AX       -0.4574537444       -0.2021157431        0.2073406338    
AX        0.4246765059        0.1884121737        0.7677173595    
AX        0.3693877129       -0.8273534787        0.3791172724    
    38
Energy=    -170.231263132033    
AX        0.3620913064        0.2366514336         1.818662527    
AX        0.9594850877       -0.9960054361       -0.5113484216    
AX         1.410398013        0.2306742821         1.270202828    
AX       -0.7560122242E-01     1.353014179       -0.8670157902    
AX         1.524796045       -0.4017304937E-01   -0.6741703047    
AX       -0.7678364665        -1.741049174       -0.5334105437    
AX        -1.263645182       -0.4925735143        0.8798137806    
AX        0.5884127050         1.527059531        0.7926866316E-01
AX        -1.168562979         1.224466278        0.5584181084    
AX        0.2394231720        -1.629002283         1.086422205    
AX        -1.347225770        0.4851645377E-01    -1.006126350    
AX       -0.8306868316        0.8623045441        -1.587220775    
AX       -0.6044797432        0.4315350127         1.084320962    
AX        -1.007676466       -0.9792692471        -1.301321178    
AX       -0.4450473384       -0.1782359454        -1.773029398    
AX        0.2535738440        -1.779376647       -0.9021752648E-01
AX        -1.412931279        0.2670993829        0.9918693261E-01
AX        0.8777462915        0.8527837826       -0.8002413863    
AX       -0.4819295314         1.885427695       -0.1718440552E-02
AX         1.361243016       -0.4094000935        0.3681835811    
AX       -0.6027428910        -1.280674612        0.4527192231    
AX        0.8284564835         1.137870193         1.125193382    
AX        0.8659495571       -0.7156161157         1.331196309    
AX        0.5664141070       -0.2772489552        -1.283245963    
AX        -1.254137192       -0.7662124237       -0.2557041592    
AX       -0.1479876590       -0.8246471037       -0.6128794873    
AX         1.195686431        -1.501927777        0.5019554432    
AX         1.267346702        0.6657926362        0.2204212320    
AX        -1.072147655         1.067865240       -0.5375374261    
AX       -0.2240344417       -0.5860332684         1.256086410    
AX        0.2511373157        0.6888557656        -1.690109148    
AX       -0.1846892452         1.465035921        0.9857269925    
AX        0.5301288124        0.4884133079E-02   -0.2537071611    
AX       -0.3218405450        0.2711258199       -0.8045797735    
AX       -0.2056969210        0.8175404086        0.1116293860    
AX       -0.4574537423       -0.2021157439        0.2073406299    
AX        0.4246765033        0.1884121721        0.7677173621    
AX        0.3693877110       -0.8273534741        0.3791172737    
    38
Energy=    -170.231263132030    
AX        0.3620913449        0.2366513920         1.818662525    
AX        0.9594850896       -0.9960054403       -0.5113484201    
AX         1.410398026        0.2306742726         1.270202823    
AX       -0.7560122355E-01     1.353014151       -0.8670157782    
AX         1.524796028       -0.4017305504E-01   -0.6741703285    
AX       -0.7678364705        -1.741049180       -0.5334105426    
AX        -1.263645186       -0.4925735017        0.8798137907    
AX        0.5884126898         1.527059521        0.7926869871E-01
AX        -1.168562975         1.224466268        0.5584181029    
AX        0.2394231702        -1.629002275         1.086422210    
AX        -1.347225829        0.4851646293E-01    -1.006126384    
AX       -0.8306868186        0.8623045517        -1.587220782    
AX       -0.6044797239        0.4315350270         1.084320970    
AX        -1.007676418       -0.9792692225        -1.301321180    
AX       -0.4450473409       -0.1782359232        -1.773029452    
AX        0.2535738425        -1.779376651       -0.9021751161E-01
AX        -1.412931284        0.2670993857        0.9918691537E-01
AX        0.8777463191        0.8527838102       -0.8002413683    
AX       -0.4819295458         1.885427693       -0.1718458001E-02
AX         1.361243022       -0.4094000889        0.3681835713    
AX       -0.6027428912        -1.280674601        0.4527192211    
AX        0.8284564866         1.137870184         1.125193414    
AX        0.8659495663       -0.7156161199         1.331196302    
AX        0.5664140695       -0.2772489895        -1.283245953    
AX        -1.254137184       -0.7662124124       -0.2557041787    
AX       -0.1479876531       -0.8246471163       -0.6128794531    
AX         1.195686443        -1.501927766        0.5019554642    
AX         1.267346703        0.6657926454        0.2204212413    
AX        -1.072147682         1.067865245       -0.5375374379    
AX       -0.2240344302       -0.5860332585         1.256086403    
AX        0.2511373378        0.6888557557        -1.690109116    
AX       -0.1846892345         1.465035934        0.9857269784    
AX        0.5301287645        0.4884155773E-02   -0.2537072178    
AX       -0.3218405520        0.2711257757       -0.8045797369    
AX       -0.2056969449        0.8175403935        0.1116293666    
AX       -0.4574537225       -0.2021157438        0.2073406382    
AX        0.4246765029        0.1884121807        0.7677173761    
AX        0.3693877059       -0.8273534600        0.3791172873    
    38
Energy=    -170.231263132032    
AX        0.3620912261        0.2366515397         1.818662518    
AX        0.9594850972       -0.9960054222       -0.5113484286    
AX         1.410397983        0.2306743034         1.270202848    
AX       -0.7560122164E-01     1.353014247       -0.8670158260    
AX         1.524796104       -0.4017302592E-01   -0.6741702388    
AX       -0.7678364708        -1.741049160       -0.5334105447    
AX        -1.263645180       -0.4925735656        0.8798137651    
AX        0.5884127432         1.527059560        0.7926858235E-01
AX        -1.168562993         1.224466320        0.5584181147    
AX        0.2394231847        -1.629002301         1.086422194    
AX        -1.347225651        0.4851643023E-01    -1.006126263    
AX       -0.8306868641        0.8623045437        -1.587220774    
AX       -0.6044798136        0.4315349767         1.084320927    
AX        -1.007676585       -0.9792693079        -1.301321176    
AX       -0.4450473438       -0.1782360092        -1.773029284    
AX        0.2535738437        -1.779376650       -0.9021757640E-01
AX        -1.412931272        0.2670993940        0.9918699531E-01
AX        0.8777462104        0.8527837104       -0.8002414184    
AX       -0.4819294861         1.885427701       -0.1718397038E-02
AX         1.361243008       -0.4094001067        0.3681836241    
AX       -0.6027428895        -1.280674644        0.4527192266    
AX        0.8284564874         1.137870218         1.125193303    
AX        0.8659495276       -0.7156161040         1.331196324    
AX        0.5664141931       -0.2772488765        -1.283245962    
AX        -1.254137225       -0.7662124523       -0.2557041171    
AX       -0.1479876745       -0.8246470618       -0.6128795677    
AX         1.195686417        -1.501927802        0.5019553859    
AX         1.267346707        0.6657926305        0.2204212171    
AX        -1.072147595         1.067865217       -0.5375373901    
AX       -0.2240344574       -0.5860332821         1.256086412    
AX        0.2511372680        0.6888557801        -1.690109235    
AX       -0.1846892676         1.465035871        0.9857270374    
AX        0.5301288484        0.4884087796E-02   -0.2537071260    
AX       -0.3218404334        0.2711259094       -0.8045797866    
AX       -0.2056968645        0.8175404212        0.1116294101    
AX       -0.4574537404       -0.2021157529        0.2073405920    
AX        0.4246764859        0.1884121536        0.7677173701    
AX        0.3693876940       -0.8273534924        0.3791172670    
    38
Energy=    -170.231263132031    
AX        0.3620911951        0.2366515939         1.818662507    
AX        0.9594851054       -0.9960054078       -0.5113484259    
AX         1.410397972        0.2306743122         1.270202863    
AX       -0.7560122137E-01     1.353014275       -0.8670158467    
AX         1.524796139       -0.4017300897E-01   -0.6741701988    
AX       -0.7678364792        -1.741049150       -0.5334105472    
AX        -1.263645182       -0.4925735987        0.8798137640    
AX        0.5884127572         1.527059577        0.7926854848E-01
AX        -1.168562995         1.224466347        0.5584181131    
AX        0.2394231979        -1.629002310         1.086422192    
AX        -1.347225595        0.4851642336E-01    -1.006126228    
AX       -0.8306868767        0.8623045495        -1.587220776    
AX       -0.6044798575        0.4315349614         1.084320900    
AX        -1.007676637       -0.9792693423        -1.301321176    
AX       -0.4450473539       -0.1782360412        -1.773029233    
AX        0.2535738359        -1.779376651       -0.9021760543E-01
AX        -1.412931264        0.2670993998        0.9918703782E-01
AX        0.8777461723        0.8527836742       -0.8002414310    
AX       -0.4819294605         1.885427696       -0.1718378633E-02
AX         1.361243000       -0.4094001086        0.3681836521    
AX       -0.6027428919        -1.280674660        0.4527192268    
AX        0.8284564953         1.137870230         1.125193259    
AX        0.8659495128       -0.7156160991         1.331196330    
AX        0.5664142273       -0.2772488434        -1.283245957    
AX        -1.254137242       -0.7662124570       -0.2557041020    
AX       -0.1479876852       -0.8246470402       -0.6128796048    
AX         1.195686421        -1.501927811        0.5019553545    
AX         1.267346704        0.6657926287        0.2204212083    
AX        -1.072147569         1.067865200       -0.5375373738    
AX       -0.2240344627       -0.5860332767         1.256086400    
AX        0.2511372460        0.6888557798        -1.690109272    
AX       -0.1846892791         1.465035840        0.9857270736    
AX        0.5301288621        0.4884065032E-02   -0.2537071152    
AX       -0.3218403773        0.2711259513       -0.8045797892    
AX       -0.2056968383        0.8175404223        0.1116294207    
AX       -0.4574537387       -0.2021157571        0.2073405743    
AX        0.4246764784        0.1884121467        0.7677173738    
AX        0.3693876860       -0.8273535105        0.3791172642    
    38
Energy=    -170.231263132030    
AX        0.3620911778        0.2366516302         1.818662496    
AX        0.9594851122       -0.9960053912       -0.5113484185    
AX         1.410397967        0.2306743159         1.270202876    
AX       -0.7560122111E-01     1.353014294       -0.8670158660    
AX         1.524796167       -0.4017299167E-01   -0.6741701649    
AX       -0.7678364834        -1.741049142       -0.5334105526    
AX        -1.263645185       -0.4925736264        0.8798137688    
AX        0.5884127628         1.527059591        0.7926852979E-01
AX        -1.168562991         1.224466367        0.5584181086    
AX        0.2394232120        -1.629002318         1.086422195    
AX        -1.347225552        0.4851642383E-01    -1.006126209    
AX       -0.8306868828        0.8623045551        -1.587220775    
AX       -0.6044798918        0.4315349529         1.084320871    
AX        -1.007676668       -0.9792693688        -1.301321174    
AX       -0.4450473679       -0.1782360636        -1.773029199    
AX        0.2535738235        -1.779376650       -0.9021762450E-01
AX        -1.412931255        0.2670994014        0.9918707616E-01
AX        0.8777461491        0.8527836494       -0.8002414393    
AX       -0.4819294422         1.885427684       -0.1718372108E-02
AX         1.361242992       -0.4094001056        0.3681836751    
AX       -0.6027428968        -1.280674671        0.4527192267    
AX        0.8284565051         1.137870236         1.125193225    
AX        0.8659495025       -0.7156160974         1.331196334    
AX        0.5664142441       -0.2772488239        -1.283245952    
AX        -1.254137257       -0.7662124518       -0.2557040941    
AX       -0.1479876941       -0.8246470242       -0.6128796291    
AX         1.195686432        -1.501927817        0.5019553310    
AX         1.267346694        0.6657926262        0.2204211981    
AX        -1.072147554         1.067865186       -0.5375373651    
AX       -0.2240344667       -0.5860332630         1.256086380    
AX        0.2511372309        0.6888557748        -1.690109290    
AX       -0.1846892871         1.465035816        0.9857271108    
AX        0.5301288762        0.4884048485E-02   -0.2537071047    
AX       -0.3218403429        0.2711259830       -0.8045797939    
AX       -0.2056968214        0.8175404192        0.1116294265    
AX       -0.4574537430       -0.2021157577        0.2073405633    
AX        0.4246764766        0.1884121440        0.7677173743    
AX        0.3693876813       -0.8273535365        0.3791172598    
    38
Energy=    -170.231263132030    
AX        0.3620911783        0.2366516318         1.818662493    
AX        0.9594851145       -0.9960053865       -0.5113484146    
AX         1.410397968        0.2306743143         1.270202879    
AX       -0.7560122148E-01     1.353014298       -0.8670158721    
AX         1.524796172       -0.4017298478E-01   -0.6741701576    
AX       -0.7678364804        -1.741049139       -0.5334105554    
AX        -1.263645188       -0.4925736321        0.8798137720    
AX        0.5884127616         1.527059595        0.7926852978E-01
AX        -1.168562988         1.224466371        0.5584181064    
AX        0.2394232155        -1.629002320         1.086422197    
AX        -1.347225545        0.4851642663E-01    -1.006126208    
AX       -0.8306868827        0.8623045579        -1.587220776    
AX       -0.6044798984        0.4315349521         1.084320863    
AX        -1.007676671       -0.9792693715        -1.301321172    
AX       -0.4450473755       -0.1782360651        -1.773029198    
AX        0.2535738201        -1.779376651       -0.9021762300E-01
AX        -1.412931253        0.2670994014        0.9918708561E-01
AX        0.8777461468        0.8527836487       -0.8002414385    
AX       -0.4819294405         1.885427680       -0.1718375528E-02
AX         1.361242989       -0.4094001033        0.3681836792    
AX       -0.6027428996        -1.280674673        0.4527192275    
AX        0.8284565089         1.137870235         1.125193220    
AX        0.8659495006       -0.7156160982         1.331196333    
AX        0.5664142433       -0.2772488254        -1.283245952    
AX        -1.254137261       -0.7662124484       -0.2557040932    
AX       -0.1479876948       -0.8246470218       -0.6128796315    
AX         1.195686436        -1.501927817        0.5019553265    
AX         1.267346690        0.6657926267        0.2204211961    
AX        -1.072147553         1.067865183       -0.5375373653    
AX       -0.2240344679       -0.5860332581         1.256086374    
AX        0.2511372293        0.6888557702        -1.690109288    
AX       -0.1846892866         1.465035811        0.9857271177    
AX        0.5301288791        0.4884046942E-02   -0.2537071039    
AX       -0.3218403383        0.2711259875       -0.8045797959    
AX       -0.2056968193        0.8175404158        0.1116294249    
AX       -0.4574537464       -0.2021157558        0.2073405621    
AX        0.4246764771        0.1884121445        0.7677173739    
AX        0.3693876821       -0.8273535458        0.3791172587    
    38
Energy=    -170.231263132026    
AX        0.3620912067        0.2366515870         1.818662497    
AX        0.9594851180       -0.9960053858       -0.5113484005    
AX         1.410397985        0.2306742983         1.270202872    
AX       -0.7560122699E-01     1.353014287       -0.8670158821    
AX         1.524796166       -0.4017296294E-01   -0.6741701622    
AX       -0.7678364539        -1.741049128       -0.5334105620    
AX        -1.263645196       -0.4925736239        0.8798137823    
AX        0.5884127463         1.527059603        0.7926855638E-01
AX        -1.168562984         1.224466375        0.5584181001    
AX        0.2394232154        -1.629002311         1.086422203    
AX        -1.347225570        0.4851643963E-01    -1.006126218    
AX       -0.8306868759        0.8623045722        -1.587220789    
AX       -0.6044798961        0.4315349548         1.084320856    
AX        -1.007676643       -0.9792693449        -1.301321162    
AX       -0.4450473967       -0.1782360401        -1.773029239    
AX        0.2535738237        -1.779376664       -0.9021757984E-01
AX        -1.412931240        0.2670994006        0.9918708954E-01
AX        0.8777461614        0.8527836876       -0.8002414159    
AX       -0.4819294586         1.885427675       -0.1718400273E-02
AX         1.361242977       -0.4094001031        0.3681836699    
AX       -0.6027429161        -1.280674678        0.4527192353    
AX        0.8284565204         1.137870221         1.125193244    
AX        0.8659495023       -0.7156161066         1.331196322    
AX        0.5664142192       -0.2772488666        -1.283245954    
AX        -1.254137266       -0.7662124418       -0.2557040924    
AX       -0.1479876841       -0.8246470319       -0.6128796172    
AX         1.195686430        -1.501927805        0.5019553244    
AX         1.267346688        0.6657926370        0.2204212052    
AX        -1.072147565         1.067865178       -0.5375373798    
AX       -0.2240344725       -0.5860332540         1.256086377    
AX        0.2511372463        0.6888557475        -1.690109260    
AX       -0.1846892683         1.465035807        0.9857270940    
AX        0.5301288710        0.4884066911E-02   -0.2537071160    
AX       -0.3218403520        0.2711259663       -0.8045797974    
AX       -0.2056968351        0.8175403823        0.1116294057    
AX       -0.4574537766       -0.2021157180        0.2073405704    
AX        0.4246764776        0.1884121514        0.7677173644    
AX        0.3693877261       -0.8273535714        0.3791172619    
    38
Energy=    -170.231263132028    
AX        0.3620911049        0.2366517395         1.818662482    
AX        0.9594851025       -0.9960053794       -0.5113484410    
AX         1.410397929        0.2306743477         1.270202907    
AX       -0.7560120659E-01     1.353014342       -0.8670158684    
AX         1.524796197       -0.4017301603E-01   -0.6741701099    
AX       -0.7678365251        -1.741049162       -0.5334105454    
AX        -1.263645180       -0.4925736556        0.8798137641    
AX        0.5884128071         1.527059597        0.7926846942E-01
AX        -1.168562985         1.224466367        0.5584181167    
AX        0.2394232287        -1.629002341         1.086422192    
AX        -1.347225460        0.4851640069E-01    -1.006126196    
AX       -0.8306868873        0.8623045262        -1.587220741    
AX       -0.6044798954        0.4315349442         1.084320846    
AX        -1.007676748       -0.9792694457        -1.301321192    
AX       -0.4450473495       -0.1782361251        -1.773029084    
AX        0.2535738046        -1.779376615       -0.9021771278E-01
AX        -1.412931275        0.2670993883        0.9918709989E-01
AX        0.8777461049        0.8527835513       -0.8002415049    
AX       -0.4819293988         1.885427670       -0.1718331035E-02
AX         1.361242993       -0.4094001085        0.3681837142    
AX       -0.6027428881        -1.280674675        0.4527192214    
AX        0.8284564874         1.137870260         1.125193144    
AX        0.8659494882       -0.7156160856         1.331196347    
AX        0.5664142952       -0.2772487288        -1.283245950    
AX        -1.254137248       -0.7662124536       -0.2557041019    
AX       -0.1479877218       -0.8246470005       -0.6128796894    
AX         1.195686447        -1.501927827        0.5019553179    
AX         1.267346672        0.6657926045        0.2204211520    
AX        -1.072147530         1.067865181       -0.5375373324    
AX       -0.2240344647       -0.5860332512         1.256086360    
AX        0.2511371866        0.6888558197        -1.690109345    
AX       -0.1846893313         1.465035825        0.9857272108    
AX        0.5301288960        0.4884004939E-02   -0.2537070850    
AX       -0.3218402797        0.2711260603       -0.8045797692    
AX       -0.2056967810        0.8175404423        0.1116294735    
AX       -0.4574537394       -0.2021157584        0.2073405411    
AX        0.4246764874        0.1884121268        0.7677173868    
AX        0.3693876646       -0.8273535695        0.3791172539    
    38
Energy=    -170.231263132026    
AX        0.3620910494        0.2366518177         1.818662481    
AX        0.9594850878       -0.9960053850       -0.5113484691    
AX         1.410397900        0.2306743757         1.270202922    
AX       -0.7560119602E-01     1.353014370       -0.8670158556    
AX         1.524796206       -0.4017304921E-01   -0.6741700842    
AX       -0.7678365642        -1.741049183       -0.5334105314    
AX        -1.263645172       -0.4925736617        0.8798137528    
AX        0.5884128445         1.527059591        0.7926842618E-01
AX        -1.168562993         1.224466360        0.5584181278    
AX        0.2394232329        -1.629002349         1.086422183    
AX        -1.347225409        0.4851637466E-01    -1.006126185    
AX       -0.8306868892        0.8623044968        -1.587220719    
AX       -0.6044798827        0.4315349383         1.084320845    
AX        -1.007676801       -0.9792694928        -1.301321211    
AX       -0.4450473127       -0.1782361661        -1.773029001    
AX        0.2535738020        -1.779376586       -0.9021778075E-01
AX        -1.412931295        0.2670993786        0.9918709564E-01
AX        0.8777460754        0.8527834830       -0.8002415565    
AX       -0.4819293710         1.885427673       -0.1718289308E-02
AX         1.361242997       -0.4094001219        0.3681837332    
AX       -0.6027428789        -1.280674679        0.4527192181    
AX        0.8284564669         1.137870281         1.125193096    
AX        0.8659494820       -0.7156160756         1.331196356    
AX        0.5664143371       -0.2772486553        -1.283245953    
AX        -1.254137231       -0.7662124668       -0.2557041084    
AX       -0.1479877393       -0.8246469918       -0.6128797330    
AX         1.195686440        -1.501927830        0.5019553148    
AX         1.267346667        0.6657925878        0.2204211225    
AX        -1.072147514         1.067865182       -0.5375373083    
AX       -0.2240344619       -0.5860332560         1.256086367    
AX        0.2511371612        0.6888558659        -1.690109395    
AX       -0.1846893638         1.465035843        0.9857272667    
AX        0.5301288983        0.4883979248E-02   -0.2537070725    
AX       -0.3218402395        0.2711261054       -0.8045797407    
AX       -0.2056967595        0.8175404557        0.1116295144    
AX       -0.4574537388       -0.2021157450        0.2073405276    
AX        0.4246764931        0.1884121120        0.7677173913    
AX        0.3693876741       -0.8273535782        0.3791172538    
    38
Energy=    -170.231263132025    
AX        0.3620910206        0.2366518571         1.818662481    
AX        0.9594850794       -0.9960053920       -0.5113484839    
AX         1.410397886        0.2306743917         1.270202925    
AX       -0.7560119145E-01     1.353014378       -0.8670158429    
AX         1.524796210       -0.4017307163E-01   -0.6741700809    
AX       -0.7678365883        -1.741049193       -0.5334105209    
AX        -1.263645163       -0.4925736598        0.8798137414    
AX        0.5884128636         1.527059586        0.7926840121E-01
AX        -1.168563002         1.224466353        0.5584181357    
AX        0.2394232315        -1.629002350         1.086422173    
AX        -1.347225393        0.4851635735E-01    -1.006126176    
AX       -0.8306868943        0.8623044853        -1.587220712    
AX       -0.6044798766        0.4315349347         1.084320856    
AX        -1.007676827       -0.9792695159        -1.301321224    
AX       -0.4450472859       -0.1782361870        -1.773028960    
AX        0.2535738058        -1.779376574       -0.9021781669E-01
AX        -1.412931305        0.2670993752        0.9918708539E-01
AX        0.8777460594        0.8527834494       -0.8002415783    
AX       -0.4819293575         1.885427684       -0.1718260518E-02
AX         1.361243001       -0.4094001323        0.3681837399    
AX       -0.6027428714        -1.280674682        0.4527192143    
AX        0.8284564532         1.137870294         1.125193076    
AX        0.8659494801       -0.7156160696         1.331196363    
AX        0.5664143621       -0.2772486171        -1.283245954    
AX        -1.254137222       -0.7662124790       -0.2557041090    
AX       -0.1479877483       -0.8246469872       -0.6128797546    
AX         1.195686430        -1.501927831        0.5019553148    
AX         1.267346673        0.6657925797        0.2204211152    
AX        -1.072147503         1.067865185       -0.5375372941    
AX       -0.2240344602       -0.5860332653         1.256086379    
AX        0.2511371499        0.6888558912        -1.690109428    
AX       -0.1846893799         1.465035855        0.9857272827    
AX        0.5301288983        0.4883966744E-02   -0.2537070659    
AX       -0.3218402223        0.2711261235       -0.8045797282    
AX       -0.2056967490        0.8175404666        0.1116295364    
AX       -0.4574537339       -0.2021157414        0.2073405212    
AX        0.4246764926        0.1884121036        0.7677173936    
AX        0.3693876778       -0.8273535698        0.3791172547    
    38
Energy=    -170.231263132024    
AX        0.3620910004        0.2366518877         1.818662485    
AX        0.9594850732       -0.9960053979       -0.5113484947    
AX         1.410397881        0.2306744033         1.270202921    
AX       -0.7560118908E-01     1.353014380       -0.8670158326    
AX         1.524796216       -0.4017308637E-01   -0.6741700839    
AX       -0.7678366067        -1.741049195       -0.5334105143    
AX        -1.263645158       -0.4925736592        0.8798137320    
AX        0.5884128720         1.527059576        0.7926838474E-01
AX        -1.168563014         1.224466354        0.5584181405    
AX        0.2394232291        -1.629002346         1.086422166    
AX        -1.347225387        0.4851634310E-01    -1.006126161    
AX       -0.8306869026        0.8623044742        -1.587220715    
AX       -0.6044798820        0.4315349300         1.084320866    
AX        -1.007676841       -0.9792695253        -1.301321230    
AX       -0.4450472568       -0.1782362036        -1.773028935    
AX        0.2535738082        -1.779376570       -0.9021784283E-01
AX        -1.412931306        0.2670993777        0.9918707874E-01
AX        0.8777460505        0.8527834317       -0.8002415912    
AX       -0.4819293488         1.885427694       -0.1718236672E-02
AX         1.361243004       -0.4094001464        0.3681837423    
AX       -0.6027428679        -1.280674686        0.4527192113    
AX        0.8284564479         1.137870307         1.125193064    