    38
Energy=    -170.018811989578    
AX        0.3512068119        0.2045762297         1.523389384    
AX         1.053514008       -0.9697996035       -0.6291337246    
AX         1.396988116        0.9220435332E-01     1.120183241    
AX        0.1789653705E-01     1.217068268       -0.7266478049    
AX         1.395964752       -0.1822677243E-01    -1.060831290    
AX       -0.7805806561        -1.530951980       -0.3394148811    
AX        -1.677717475       -0.8016981374E-01    0.8457148693    
AX        0.5445914807         1.509098773        0.2571033220    
AX        -1.219818499        0.9103117273        0.6011896265    
AX        0.3440212383        -1.557847757         1.055813970    
AX        -1.449602389        0.3180523825        -1.344269241    
AX       -0.5458539420        0.9141095930        -1.653168278    
AX       -0.6013378784        0.1655609654E-01    0.9511004647    
AX        -1.179938937       -0.6718568085       -0.9271759945    
AX       -0.3964321372       -0.2395845628        -1.844336202    
AX        0.2296392079        -1.314946989       -0.1102125442E-01
AX        -1.372334650        0.1575392888       -0.1989074966    
AX        0.9927561274        0.8134552108       -0.4834617529    
AX       -0.5364251682         1.667501368        0.1544346364    
AX         1.430208457       -0.9467724180E-01    0.3456513514E-01
AX       -0.6504649725        -1.180667740        0.7537206050    
AX        0.9158502377         1.141490848         1.291819040    
AX        0.9147496784       -0.7726585361         1.567377116    
AX        0.6794982287       -0.6100460212        -1.647694655    
AX        -1.537168487       -0.8897413749        0.1208165754    
AX       -0.1036420851       -0.8824887613       -0.9629610996    
AX         1.204856506        -1.057502967        0.5043563648    
AX         1.586780210        0.9628512646        0.4262206038    
AX        -1.064309331         1.098985881       -0.6329705641    
AX       -0.1922484992       -0.7519870028         1.651739058    
AX        0.4299712431        0.4216338189        -1.375507621    
AX       -0.1703056587         1.059147167         1.029663241    
AX        0.4299603158       -0.1212081111       -0.3921869369    
AX       -0.4899753242        0.1749401254       -0.8739894216    
AX       -0.3400671497        0.5874416357        0.7070689839E-01
AX       -0.5227602775       -0.4870794947       -0.3275705753E-01
AX        0.6138750540        0.4738581676        0.4929851115    
AX        0.2986553093       -0.5093806596        0.6835360141    
    38
Energy=    -170.018811989578    
AX        0.3512067883        0.2045762210         1.523389388    
AX         1.053514066       -0.9697995782       -0.6291337522    
AX         1.396988087        0.9220427983E-01     1.120183185    
AX        0.1789654512E-01     1.217068237       -0.7266477718    
AX         1.395964772       -0.1822674361E-01    -1.060831369    
AX       -0.7805806296        -1.530951980       -0.3394148637    
AX        -1.677717552       -0.8016974597E-01    0.8457148498    
AX        0.5445915231         1.509098777        0.2571033220    
AX        -1.219818505        0.9103117550        0.6011896034    
AX        0.3440212561        -1.557847747         1.055813968    
AX        -1.449602389        0.3180523660        -1.344269213    
AX       -0.5458539445        0.9141095832        -1.653168243    
AX       -0.6013379442        0.1655609559E-01    0.9511004767    
AX        -1.179938943       -0.6718568244       -0.9271759810    
AX       -0.3964321534       -0.2395845551        -1.844336185    
AX        0.2296392651        -1.314946966       -0.1102126558E-01
AX        -1.372334650        0.1575392827       -0.1989074937    
AX        0.9927561510        0.8134552147       -0.4834617853    
AX       -0.5364251318         1.667501363        0.1544346422    
AX         1.430208503       -0.9467720275E-01    0.3456505840E-01
AX       -0.6504649597        -1.180667785        0.7537205911    
AX        0.9158502408         1.141490806         1.291819043    
AX        0.9147496141       -0.7726585242         1.567377183    
AX        0.6794982207       -0.6100460155        -1.647694678    
AX        -1.537168467       -0.8897413596        0.1208166076    
AX       -0.1036420810       -0.8824887618       -0.9629611084    
AX         1.204856510        -1.057502844        0.5043564093    
AX         1.586780212        0.9628512386        0.4262205947    
AX        -1.064309321         1.098985866       -0.6329705431    
AX       -0.1922485713       -0.7519870102         1.651739061    
AX        0.4299712333        0.4216338138        -1.375507625    
AX       -0.1703056483         1.059147158         1.029663246    
AX        0.4299603317       -0.1212081271       -0.3921869459    
AX       -0.4899753301        0.1749401130       -0.8739894068    
AX       -0.3400671623        0.5874416133        0.7070691849E-01
AX       -0.5227602598       -0.4870795065       -0.3275705133E-01
AX        0.6138750635        0.4738581470        0.4929851001    
AX        0.2986552623       -0.5093806538        0.6835360332    
    38
Energy=    -170.018811989577    
AX        0.3512067739        0.2045762150         1.523389391    
AX         1.053514095       -0.9697995639       -0.6291337661    
AX         1.396988076        0.9220423412E-01     1.120183157    
AX        0.1789654867E-01     1.217068227       -0.7266477583    
AX         1.395964779       -0.1822672931E-01    -1.060831412    
AX       -0.7805806152        -1.530951983       -0.3394148530    
AX        -1.677717598       -0.8016970948E-01    0.8457148366    
AX        0.5445915451         1.509098769        0.2571033237    
AX        -1.219818508        0.9103117721        0.6011895856    
AX        0.3440212677        -1.557847739         1.055813967    
AX        -1.449602386        0.3180523545        -1.344269203    
AX       -0.5458539484        0.9141095836        -1.653168226    
AX       -0.6013379824        0.1655609259E-01    0.9511004787    
AX        -1.179938944       -0.6718568339       -0.9271759719    
AX       -0.3964321704       -0.2395845505        -1.844336178    
AX        0.2296392931        -1.314946953       -0.1102127192E-01
AX        -1.372334645        0.1575392780       -0.1989074912    
AX        0.9927561602        0.8134552159       -0.4834618004    
AX       -0.5364251097         1.667501362        0.1544346453    
AX         1.430208537       -0.9467717772E-01    0.3456501464E-01
AX       -0.6504649529        -1.180667809        0.7537205887    
AX        0.9158502429         1.141490784         1.291819045    
AX        0.9147495793       -0.7726585185         1.567377223    
AX        0.6794982140       -0.6100460107        -1.647694695    
AX        -1.537168457       -0.8897413541        0.1208166260    
AX       -0.1036420780       -0.8824887615       -0.9629611126    
AX         1.204856513        -1.057502771        0.5043564315    
AX         1.586780214        0.9628512280        0.4262205921    
AX        -1.064309317         1.098985859       -0.6329705312    
AX       -0.1922486101       -0.7519870121         1.651739066    
AX        0.4299712262        0.4216338121        -1.375507627    
AX       -0.1703056419         1.059147148         1.029663248    
AX        0.4299603358       -0.1212081368       -0.3921869489    
AX       -0.4899753278        0.1749401046       -0.8739893911    
AX       -0.3400671602        0.5874415997        0.7070692831E-01
AX       -0.5227602485       -0.4870795105       -0.3275705372E-01
AX        0.6138750698        0.4738581376        0.4929850937    
AX        0.2986552323       -0.5093806519        0.6835360495    
    38
Energy=    -170.018811989577    
AX        0.3512067508        0.2045762043         1.523389392    
AX         1.053514127       -0.9697995415       -0.6291337802    
AX         1.396988067        0.9220416795E-01     1.120183125    
AX        0.1789655125E-01     1.217068217       -0.7266477456    
AX         1.395964786       -0.1822671252E-01    -1.060831468    
AX       -0.7805805955        -1.530951988       -0.3394148380    
AX        -1.677717662       -0.8016966450E-01    0.8457148185    
AX        0.5445915740         1.509098748        0.2571033265    
AX        -1.219818511        0.9103117984        0.6011895593    
AX        0.3440212853        -1.557847726         1.055813967    
AX        -1.449602379        0.3180523371        -1.344269196    
AX       -0.5458539574        0.9141095903        -1.653168205    
AX       -0.6013380321        0.1655608405E-01    0.9511004757    
AX        -1.179938939       -0.6718568483       -0.9271759562    
AX       -0.3964321994       -0.2395845426        -1.844336172    
AX        0.2296393238        -1.314946939       -0.1102128381E-01
AX        -1.372334633        0.1575392661       -0.1989074827    
AX        0.9927561678        0.8134552097       -0.4834618140    
AX       -0.5364250771         1.667501360        0.1544346492    
AX         1.430208582       -0.9467713944E-01    0.3456495426E-01
AX       -0.6504649465        -1.180667834        0.7537205820    
AX        0.9158502484         1.141490757         1.291819048    
AX        0.9147495324       -0.7726585121         1.567377280    
AX        0.6794982043       -0.6100460047        -1.647694721    
AX        -1.537168441       -0.8897413502        0.1208166498    
AX       -0.1036420735       -0.8824887654       -0.9629611219    
AX         1.204856519        -1.057502675        0.5043564574    
AX         1.586780217        0.9628512193        0.4262205920    
AX        -1.064309313         1.098985856       -0.6329705138    
AX       -0.1922486578       -0.7519870108         1.651739075    
AX        0.4299712135        0.4216338096        -1.375507628    
AX       -0.1703056361         1.059147132         1.029663246    
AX        0.4299603591       -0.1212081383       -0.3921869447    
AX       -0.4899753224        0.1749401004       -0.8739893796    
AX       -0.3400671510        0.5874415876        0.7070694263E-01
AX       -0.5227602535       -0.4870795316       -0.3275704661E-01
AX        0.6138750819        0.4738581249        0.4929850734    
AX        0.2986551903       -0.5093806465        0.6835360840    
    38
Energy=    -170.018811989576    
AX        0.3512067160        0.2045762031         1.523389380    
AX         1.053514154       -0.9697995036       -0.6291337863    
AX         1.396988054        0.9220408198E-01     1.120183088    
AX        0.1789655361E-01     1.217068215       -0.7266477427    
AX         1.395964797       -0.1822669462E-01    -1.060831535    
AX       -0.7805805793        -1.530952009       -0.3394148159    
AX        -1.677717743       -0.8016961340E-01    0.8457147993    
AX        0.5445916081         1.509098705        0.2571033300    
AX        -1.219818519        0.9103118421        0.6011895255    
AX        0.3440213084        -1.557847699         1.055813961    
AX        -1.449602355        0.3180523143        -1.344269197    
AX       -0.5458539788        0.9141096055        -1.653168177    
AX       -0.6013381065        0.1655606568E-01    0.9511004647    
AX        -1.179938928       -0.6718568676       -0.9271759320    
AX       -0.3964322460       -0.2395845278        -1.844336173    
AX        0.2296393524        -1.314946909       -0.1102128758E-01
AX        -1.372334602        0.1575392613       -0.1989074647    
AX        0.9927561746        0.8134551959       -0.4834618267    
AX       -0.5364250196         1.667501360        0.1544346520    
AX         1.430208659       -0.9467708881E-01    0.3456488546E-01
AX       -0.6504649356        -1.180667874        0.7537205823    
AX        0.9158502588         1.141490730         1.291819041    
AX        0.9147494788       -0.7726585060         1.567377350    
AX        0.6794981948       -0.6100459928        -1.647694757    
AX        -1.537168437       -0.8897413603        0.1208166858    
AX       -0.1036420589       -0.8824887642       -0.9629611335    
AX         1.204856529        -1.057502554        0.5043564808    
AX         1.586780227        0.9628512240        0.4262206040    
AX        -1.064309319         1.098985863       -0.6329704880    
AX       -0.1922487145       -0.7519870117         1.651739096    
AX        0.4299711981        0.4216338058        -1.375507630    
AX       -0.1703056310         1.059147101         1.029663239    
AX        0.4299603602       -0.1212081520       -0.3921869330    
AX       -0.4899753181        0.1749400921       -0.8739893733    
AX       -0.3400671336        0.5874415714        0.7070695772E-01
AX       -0.5227602387       -0.4870795555       -0.3275704587E-01
AX        0.6138750984        0.4738580959        0.4929850636    
AX        0.2986551423       -0.5093806497        0.6835361138    
    38
Energy=    -170.018811989575    
AX        0.3512067059        0.2045762047         1.523389372    
AX         1.053514157       -0.9697994913       -0.6291337842    
AX         1.396988052        0.9220405892E-01     1.120183083    
AX        0.1789655403E-01     1.217068215       -0.7266477437    
AX         1.395964801       -0.1822669149E-01    -1.060831551    
AX       -0.7805805745        -1.530952016       -0.3394148130    
AX        -1.677717760       -0.8016960469E-01    0.8457147968    
AX        0.5445916175         1.509098690        0.2571033292    
AX        -1.219818522        0.9103118542        0.6011895190    
AX        0.3440213137        -1.557847693         1.055813958    
AX        -1.449602348        0.3180523073        -1.344269198    
AX       -0.5458539869        0.9141096150        -1.653168172    
AX       -0.6013381220        0.1655605930E-01    0.9511004589    
AX        -1.179938921       -0.6718568719       -0.9271759246    
AX       -0.3964322585       -0.2395845224        -1.844336177    
AX        0.2296393561        -1.314946902       -0.1102128911E-01
AX        -1.372334592        0.1575392591       -0.1989074573    
AX        0.9927561772        0.8134551911       -0.4834618287    
AX       -0.5364250034         1.667501361        0.1544346531    
AX         1.430208677       -0.9467707564E-01    0.3456486996E-01
AX       -0.6504649362        -1.180667883        0.7537205834    
AX        0.9158502618         1.141490725         1.291819036    
AX        0.9147494652       -0.7726585056         1.567377370    
AX        0.6794981933       -0.6100459923        -1.647694765    
AX        -1.537168438       -0.8897413672        0.1208166943    
AX       -0.1036420533       -0.8824887637       -0.9629611358    
AX         1.204856532        -1.057502527        0.5043564843    
AX         1.586780232        0.9628512289        0.4262206082    
AX        -1.064309322         1.098985866       -0.6329704790    
AX       -0.1922487264       -0.7519870099         1.651739100    
AX        0.4299711949        0.4216338035        -1.375507630    
AX       -0.1703056316         1.059147094         1.029663234    
AX        0.4299603596       -0.1212081533       -0.3921869272    
AX       -0.4899753180        0.1749400928       -0.8739893739    
AX       -0.3400671273        0.5874415670        0.7070696094E-01
AX       -0.5227602374       -0.4870795639       -0.3275704473E-01
AX        0.6138751012        0.4738580901        0.4929850592    
AX        0.2986551292       -0.5093806480        0.6835361235    
    38
Energy=    -170.018811989574    
AX        0.3512066903        0.2045762061         1.523389363    
AX         1.053514165       -0.9697994873       -0.6291337852    
AX         1.396988052        0.9220400945E-01     1.120183059    
AX        0.1789655752E-01     1.217068218       -0.7266477491    
AX         1.395964788       -0.1822669334E-01    -1.060831575    
AX       -0.7805805607        -1.530952023       -0.3394148114    
AX        -1.677717809       -0.8016958636E-01    0.8457147886    
AX        0.5445916269         1.509098679        0.2571033334    
AX        -1.219818514        0.9103118562        0.6011894986    
AX        0.3440213241        -1.557847690         1.055813957    
AX        -1.449602342        0.3180522984        -1.344269198    
AX       -0.5458540015        0.9141096376        -1.653168162    
AX       -0.6013381628        0.1655605178E-01    0.9511004477    
AX        -1.179938913       -0.6718568793       -0.9271759125    
AX       -0.3964322853       -0.2395845120        -1.844336186    
AX        0.2296393667        -1.314946887       -0.1102128642E-01
AX        -1.372334580        0.1575392415       -0.1989074487    
AX        0.9927561831        0.8134551883       -0.4834618311    
AX       -0.5364249851         1.667501361        0.1544346490    
AX         1.430208711       -0.9467704268E-01    0.3456483831E-01
AX       -0.6504649297        -1.180667890        0.7537205877    
AX        0.9158502705         1.141490703         1.291819040    
AX        0.9147494363       -0.7726585082         1.567377405    
AX        0.6794981806       -0.6100459968        -1.647694784    
AX        -1.537168427       -0.8897413791        0.1208167165    
AX       -0.1036420475       -0.8824887608       -0.9629611397    
AX         1.204856531        -1.057502455        0.5043565005    
AX         1.586780242        0.9628512334        0.4262206202    
AX        -1.064309320         1.098985860       -0.6329704573    
AX       -0.1922487487       -0.7519870031         1.651739109    
AX        0.4299711873        0.4216338025        -1.375507636    
AX       -0.1703056333         1.059147087         1.029663228    
AX        0.4299603721       -0.1212081555       -0.3921869204    
AX       -0.4899753081        0.1749400950       -0.8739893677    
AX       -0.3400671202        0.5874415604        0.7070694729E-01
AX       -0.5227602417       -0.4870795675       -0.3275705291E-01
AX        0.6138751387        0.4738580649        0.4929850661    
AX        0.2986551061       -0.5093806363        0.6835361483    
    38
Energy=    -170.018811989573    
AX        0.3512066817        0.2045762064         1.523389364    
AX         1.053514186       -0.9697995036       -0.6291337963    
AX         1.396988071        0.9220392797E-01     1.120183031    
AX        0.1789656325E-01     1.217068230       -0.7266477541    
AX         1.395964751       -0.1822670062E-01    -1.060831604    
AX       -0.7805805304        -1.530952019       -0.3394148168    
AX        -1.677717871       -0.8016956283E-01    0.8457147690    
AX        0.5445916266         1.509098677        0.2571033465    
AX        -1.219818497        0.9103118349        0.6011894654    
AX        0.3440213361        -1.557847703         1.055813959    
AX        -1.449602338        0.3180522850        -1.344269194    
AX       -0.5458540161        0.9141096725        -1.653168161    
AX       -0.6013382146        0.1655605558E-01    0.9511004319    
AX        -1.179938900       -0.6718568827       -0.9271759102    
AX       -0.3964323271       -0.2395845067        -1.844336190    
AX        0.2296393881        -1.314946858       -0.1102127111E-01
AX        -1.372334592        0.1575392171       -0.1989074577    
AX        0.9927561896        0.8134552029       -0.4834618363    
AX       -0.5364249875         1.667501366        0.1544346469    
AX         1.430208758       -0.9467700093E-01    0.3456479257E-01
AX       -0.6504649227        -1.180667874        0.7537205971    
AX        0.9158502850         1.141490655         1.291819063    
AX        0.9147494015       -0.7726585196         1.567377461    
AX        0.6794981470       -0.6100460124        -1.647694804    
AX        -1.537168404       -0.8897413953        0.1208167405    
AX       -0.1036420436       -0.8824887551       -0.9629611356    
AX         1.204856515        -1.057502347        0.5043565292    
AX         1.586780267        0.9628512354        0.4262206288    
AX        -1.064309313         1.098985831       -0.6329704317    
AX       -0.1922487743       -0.7519869876         1.651739122    
AX        0.4299711779        0.4216338057        -1.375507646    
AX       -0.1703056322         1.059147082         1.029663219    
AX        0.4299603852       -0.1212081660       -0.3921869123    
AX       -0.4899752918        0.1749401028       -0.8739893780    
AX       -0.3400670757        0.5874415565        0.7070694885E-01
AX       -0.5227602284       -0.4870795691       -0.3275705522E-01
AX        0.6138751629        0.4738580459        0.4929850643    
AX        0.2986550662       -0.5093806272        0.6835361746    
    38
Energy=    -170.018811989573    
AX        0.3512066798        0.2045762000         1.523389371    
AX         1.053514203       -0.9697995175       -0.6291338083    
AX         1.396988081        0.9220387837E-01     1.120183007    
AX        0.1789656489E-01     1.217068240       -0.7266477568    
AX         1.395964726       -0.1822670140E-01    -1.060831622    
AX       -0.7805805117        -1.530952014       -0.3394148109    
AX        -1.677717915       -0.8016954226E-01    0.8457147501    
AX        0.5445916207         1.509098676        0.2571033616    
AX        -1.219818487        0.9103118201        0.6011894413    
AX        0.3440213429        -1.557847712         1.055813962    
AX        -1.449602331        0.3180522794        -1.344269195    
AX       -0.5458540199        0.9141096824        -1.653168161    
AX       -0.6013382426        0.1655605681E-01    0.9511004294    
AX        -1.179938896       -0.6718568845       -0.9271759121    
AX       -0.3964323570       -0.2395845132        -1.844336187    
AX        0.2296394052        -1.314946840       -0.1102126698E-01
AX        -1.372334599        0.1575392042       -0.1989074737    
AX        0.9927561864        0.8134552111       -0.4834618370    
AX       -0.5364249946         1.667501369        0.1544346445    
AX         1.430208788       -0.9467697733E-01    0.3456475899E-01
AX       -0.6504649121        -1.180667861        0.7537206021    
AX        0.9158502956         1.141490621         1.291819082    
AX        0.9147493841       -0.7726585269         1.567377488    
AX        0.6794981233       -0.6100460151        -1.647694817    
AX        -1.537168385       -0.8897413960        0.1208167532    
AX       -0.1036420439       -0.8824887558       -0.9629611329    
AX         1.204856513        -1.057502279        0.5043565496    
AX         1.586780275        0.9628512303        0.4262206328    
AX        -1.064309304         1.098985813       -0.6329704234    
AX       -0.1922487891       -0.7519869813         1.651739135    
AX        0.4299711745        0.4216338120        -1.375507657    
AX       -0.1703056279         1.059147079         1.029663222    
AX        0.4299604051       -0.1212081770       -0.3921869101    
AX       -0.4899752883        0.1749401090       -0.8739893693    
AX       -0.3400670529        0.5874415543        0.7070693987E-01
AX       -0.5227602242       -0.4870795608       -0.3275705607E-01
AX        0.6138751795        0.4738580338        0.4929850677    
AX        0.2986550364       -0.5093806143        0.6835361989    
    38
Energy=    -170.018811989572    
AX        0.3512066786        0.2045761883         1.523389385    
AX         1.053514224       -0.9697995373       -0.6291338284    
AX         1.396988085        0.9220382989E-01     1.120182975    
AX        0.1789656695E-01     1.217068256       -0.7266477613    
AX         1.395964699       -0.1822670013E-01    -1.060831643    
AX       -0.7805804943        -1.530952007       -0.3394147947    
AX        -1.677717973       -0.8016950962E-01    0.8457147224    
AX        0.5445916108         1.509098666        0.2571033878    
AX        -1.219818478        0.9103118059        0.6011894085    
AX        0.3440213514        -1.557847711         1.055813968    
AX        -1.449602323        0.3180522793        -1.344269198    
AX       -0.5458540177        0.9141096726        -1.653168157    
AX       -0.6013382765        0.1655605919E-01    0.9511004350    
AX        -1.179938899       -0.6718568898       -0.9271759169    
AX       -0.3964323881       -0.2395845247        -1.844336172    
AX        0.2296394281        -1.314946818       -0.1102126425E-01
AX        -1.372334608        0.1575391918       -0.1989074953    
AX        0.9927561769        0.8134552195       -0.4834618337    
AX       -0.5364250039         1.667501369        0.1544346426    
AX         1.430208826       -0.9467695568E-01    0.3456472021E-01
AX       -0.6504648878        -1.180667853        0.7537206047    
AX        0.9158503106         1.141490580         1.291819105    
AX        0.9147493678       -0.7726585308         1.567377506    
AX        0.6794980958       -0.6100460087        -1.647694834    
AX        -1.537168362       -0.8897413856        0.1208167688    
AX       -0.1036420475       -0.8824887580       -0.9629611296    
AX         1.204856516        -1.057502206        0.5043565728    
AX         1.586780274        0.9628512194        0.4262206388    
AX        -1.064309293         1.098985803       -0.6329704231    
AX       -0.1922488064       -0.7519869807         1.651739154    
AX        0.4299711640        0.4216338234        -1.375507667    
AX       -0.1703056185         1.059147068         1.029663227    
AX        0.4299604259       -0.1212081986       -0.3921869210    
AX       -0.4899752772        0.1749401011       -0.8739893757    
AX       -0.3400670335        0.5874415590        0.7070694853E-01
AX       -0.5227602199       -0.4870795445       -0.3275706064E-01
AX        0.6138752028        0.4738580388        0.4929850764    
AX        0.2986550039       -0.5093806106        0.6835362297    
    38
Energy=    -170.018811989570    
AX        0.3512066774        0.2045761722         1.523389409    
AX         1.053514251       -0.9697995585       -0.6291338555    
AX         1.396988085        0.9220378773E-01     1.120182942    
AX        0.1789656691E-01     1.217068276       -0.7266477647    
AX         1.395964678       -0.1822669151E-01    -1.060831667    
AX       -0.7805804844        -1.530952001       -0.3394147620    
AX        -1.677718036       -0.8016946222E-01    0.8457146880    
AX        0.5445915955         1.509098654        0.2571034210    
AX        -1.219818477        0.9103118011        0.6011893735    
AX        0.3440213626        -1.557847700         1.055813972    
AX        -1.449602309        0.3180522845        -1.344269208    
AX       -0.5458540092        0.9141096430        -1.653168154    
AX       -0.6013383208        0.1655606053E-01    0.9511004523    
AX        -1.179938909       -0.6718568996       -0.9271759239    
AX       -0.3964324203       -0.2395845497        -1.844336156    
AX        0.2296394551        -1.314946787       -0.1102125879E-01
AX        -1.372334613        0.1575391947       -0.1989075269    
AX        0.9927561561        0.8134552190       -0.4834618266    
AX       -0.5364250093         1.667501369        0.1544346409    
AX         1.430208867       -0.9467693812E-01    0.3456467835E-01
AX       -0.6504648513        -1.180667850        0.7537205958    
AX        0.9158503298         1.141490546         1.291819138    
AX        0.9147493603       -0.7726585307         1.567377509    
AX        0.6794980698       -0.6100459871        -1.647694852    
AX        -1.537168338       -0.8897413635        0.1208167865    
AX       -0.1036420566       -0.8824887684       -0.9629611298    
AX         1.204856526        -1.057502135        0.5043565945    
AX         1.586780266        0.9628512074        0.4262206448    
AX        -1.064309282         1.098985800       -0.6329704346    
AX       -0.1922488241       -0.7519869908         1.651739186    
AX        0.4299711574        0.4216338402        -1.375507680    
AX       -0.1703056071         1.059147050         1.029663243    
AX        0.4299604526       -0.1212082168       -0.3921869256    
AX       -0.4899752701        0.1749400911       -0.8739893536    
AX       -0.3400670104        0.5874415597        0.7070694970E-01
AX       -0.5227602103       -0.4870795327       -0.3275705677E-01
AX        0.6138752032        0.4738580215        0.4929850679    
AX        0.2986549801       -0.5093806147        0.6835362452    
    38
Energy=    -170.018811989569    
AX        0.3512066735        0.2045761612         1.523389420    
AX         1.053514263       -0.9697995674       -0.6291338737    
AX         1.396988080        0.9220377628E-01     1.120182926    
AX        0.1789656613E-01     1.217068287       -0.7266477663    
AX         1.395964672       -0.1822668387E-01    -1.060831680    
AX       -0.7805804850        -1.530952001       -0.3394147356    
AX        -1.677718078       -0.8016942483E-01    0.8457146657    
AX        0.5445915884         1.509098636        0.2571034455    
AX        -1.219818484        0.9103118095        0.6011893523    
AX        0.3440213729        -1.557847683         1.055813975    
AX        -1.449602298        0.3180522918        -1.344269214    
AX       -0.5458540024        0.9141096100        -1.653168151    
AX       -0.6013383444        0.1655605362E-01    0.9511004665    
AX        -1.179938919       -0.6718569074       -0.9271759264    
AX       -0.3964324321       -0.2395845672        -1.844336145    
AX        0.2296394695        -1.314946772       -0.1102126209E-01
AX        -1.372334607        0.1575392010       -0.1989075453    
AX        0.9927561411        0.8134552130       -0.4834618182    
AX       -0.5364250054         1.667501366        0.1544346433    
AX         1.430208892       -0.9467693395E-01    0.3456465646E-01
AX       -0.6504648217        -1.180667861        0.7537205886    
AX        0.9158503423         1.141490529         1.291819152    