    38
Energy=    -169.193442256091    
AX        0.3971890409        0.3213025590         1.698874397    
AX        0.9455102406        -1.022303058       -0.5059007478    
AX         1.484518198        0.2439363912         1.243047575    
AX       -0.3939559950E-01     1.561024894       -0.8821802792    
AX         1.498155800        0.2736133553E-01   -0.7154415080    
AX       -0.8039174521        -1.785810844       -0.4280074060    
AX        -1.388115982       -0.3119208887        0.7658568835    
AX        0.5961647718         1.567691702        0.2050759443    
AX        -1.028344907        0.8043208546        0.4507071899    
AX        0.2851150167        -1.583234747         1.133747359    
AX        -1.468772328        0.2482724387        -1.332959110    
AX       -0.7228360202         1.040148692        -1.662391826    
AX       -0.7082212110        0.3375413514         1.377494487    
AX       -0.8847025192       -0.8857405190        -1.278273898    
AX       -0.5457872724       -0.3285170647E-01    -1.876312139    
AX        0.2570607019        -1.789725997        0.3068453785E-01
AX        -1.612577290        0.2206225056       -0.2348439490    
AX        0.9040060047        0.9776651653       -0.6551678250    
AX       -0.5231727985         1.756627990        0.1169940646    
AX         1.375943310       -0.3581599081        0.3099163649    
AX       -0.5999640339        -1.216898289        0.5321395857    
AX        0.9501961030         1.181489247         1.179698949    
AX        0.9302697212       -0.6732323499         1.332771043    
AX        0.2870229199       -0.5451519059        -1.350500736    
AX        -1.222760683       -0.7702868173       -0.2392367510    
AX       -0.1718136636       -0.9156091321       -0.4588020001    
AX         1.229007349        -1.448231089        0.5226411881    
AX         1.416180691        0.7418617667        0.2530950553    
AX        -1.016458077         1.058169905       -0.6227928645    
AX       -0.1626220287       -0.5730469684         1.308379652    
AX        0.1714987549        0.5454488327        -1.282840305    
AX       -0.1032891695         1.119336584        0.9388271773    
AX        0.4818094007       -0.4675491285E-01   -0.3885011786    
AX       -0.5981934858        0.3846949871E-01   -0.7367217156    
AX       -0.8293754303E-01    0.7944592770       -0.1245439065    
AX       -0.4436943501       -0.1229135055        0.3162706977    
AX        0.5210629969        0.2723832994        0.6459855496    
AX        0.3968653936       -0.7762616506        0.4132104475    
    38
Energy=    -169.193442256091    
AX        0.3971890395        0.3213025518         1.698874392    
AX        0.9455102406        -1.022303060       -0.5059007467    
AX         1.484518198        0.2439363904         1.243047573    
AX       -0.3939560191E-01     1.561024895       -0.8821802848    
AX         1.498155796        0.2736133707E-01   -0.7154415074    
AX       -0.8039174514        -1.785810847       -0.4280073958    
AX        -1.388115985       -0.3119208921        0.7658568817    
AX        0.5961647754         1.567691699        0.2050759407    
AX        -1.028344907        0.8043208568        0.4507071925    
AX        0.2851150205        -1.583234749         1.133747356    
AX        -1.468772326        0.2482724435        -1.332959109    
AX       -0.7228360155         1.040148694        -1.662391830    
AX       -0.7082212131        0.3375413430         1.377494485    
AX       -0.8847025202       -0.8857405158        -1.278273897    
AX       -0.5457872733       -0.3285170488E-01    -1.876312139    
AX        0.2570607076        -1.789725992        0.3068453524E-01
AX        -1.612577287        0.2206225083       -0.2348439485    
AX        0.9040060065        0.9776651631       -0.6551678274    
AX       -0.5231727990         1.756627991        0.1169940672    
AX         1.375943312       -0.3581599081        0.3099163651    
AX       -0.5999640330        -1.216898292        0.5321395873    
AX        0.9501961025         1.181489246         1.179698948    
AX        0.9302697180       -0.6732323491         1.332771049    
AX        0.2870229153       -0.5451519073        -1.350500734    
AX        -1.222760680       -0.7702868141       -0.2392367500    
AX       -0.1718136667       -0.9156091309       -0.4588019999    
AX         1.229007352        -1.448231088        0.5226411963    
AX         1.416180689        0.7418617676        0.2530950541    
AX        -1.016458076         1.058169909       -0.6227928667    
AX       -0.1626220298       -0.5730469775         1.308379650    
AX        0.1714987546        0.5454488308        -1.282840309    
AX       -0.1032891713         1.119336582        0.9388271792    
AX        0.4818093981       -0.4675491382E-01   -0.3885011801    
AX       -0.5981934843        0.3846950160E-01   -0.7367217161    
AX       -0.8293754442E-01    0.7944592818       -0.1245439085    
AX       -0.4436943508       -0.1229135048        0.3162706997    
AX        0.5210629962        0.2723833015        0.6459855457    
AX        0.3968653947       -0.7762616470        0.4132104537    
    38
Energy=    -169.193442256090    
AX        0.3971890701        0.3213025213         1.698874393    
AX        0.9455102397        -1.022303057       -0.5059007475    
AX         1.484518188        0.2439363883         1.243047574    
AX       -0.3939560689E-01     1.561024886       -0.8821802920    
AX         1.498155791        0.2736134754E-01   -0.7154415157    
AX       -0.8039174578        -1.785810830       -0.4280073939    
AX        -1.388116026       -0.3119208256        0.7658568737    
AX        0.5961647824         1.567691696        0.2050759444    
AX        -1.028344916        0.8043208495        0.4507071945    
AX        0.2851150287        -1.583234770         1.133747336    
AX        -1.468772313        0.2482723863        -1.332959128    
AX       -0.7228360069         1.040148664        -1.662391822    
AX       -0.7082211804        0.3375413268         1.377494480    
AX       -0.8847025424       -0.8857404972        -1.278273879    
AX       -0.5457872423       -0.3285172852E-01    -1.876312144    
AX        0.2570607145        -1.789725982        0.3068451083E-01
AX        -1.612577304        0.2206225293       -0.2348439663    
AX        0.9040060074        0.9776651700       -0.6551678396    
AX       -0.5231728128         1.756627991        0.1169940657    
AX         1.375943301       -0.3581598957        0.3099163598    
AX       -0.5999640356        -1.216898301        0.5321395880    
AX        0.9501960948         1.181489248         1.179698960    
AX        0.9302697276       -0.6732323631         1.332771051    
AX        0.2870229352       -0.5451519211        -1.350500723    
AX        -1.222760681       -0.7702867954       -0.2392367287    
AX       -0.1718136753       -0.9156091170       -0.4588019893    
AX         1.229007355        -1.448231084        0.5226411803    
AX         1.416180687        0.7418617799        0.2530950618    
AX        -1.016458092         1.058169919       -0.6227928654    
AX       -0.1626220235       -0.5730469963         1.308379661    
AX        0.1714987765        0.5454488210        -1.282840299    
AX       -0.1032891742         1.119336594        0.9388271780    
AX        0.4818093949       -0.4675490559E-01   -0.3885011708    
AX       -0.5981934843        0.3846951509E-01   -0.7367216973    
AX       -0.8293754975E-01    0.7944592748       -0.1245439053    
AX       -0.4436943557       -0.1229135023        0.3162707088    
AX        0.5210629885        0.2723833139        0.6459855445    
AX        0.3968653977       -0.7762616483        0.4132104423    
    38
Energy=    -169.193442256090    
AX        0.3971891215        0.3213024891         1.698874412    
AX        0.9455102377        -1.022303048       -0.5059007570    
AX         1.484518172        0.2439363870         1.243047578    
AX       -0.3939561428E-01     1.561024866       -0.8821802902    
AX         1.498155791        0.2736136512E-01   -0.7154415300    
AX       -0.8039174718        -1.785810800       -0.4280074075    
AX        -1.388116086       -0.3119207102        0.7658568604    
AX        0.5961647856         1.567691695        0.2050759535    
AX        -1.028344926        0.8043208339        0.4507071996    
AX        0.2851150355        -1.583234797         1.133747307    
AX        -1.468772290        0.2482722784        -1.332959161    
AX       -0.7228359989         1.040148606        -1.662391797    
AX       -0.7082211271        0.3375413245         1.377494475    
AX       -0.8847025816       -0.8857404697        -1.278273849    
AX       -0.5457871834       -0.3285176849E-01    -1.876312150    
AX        0.2570607132        -1.789725984        0.3068447485E-01
AX        -1.612577340        0.2206225530       -0.2348439984    
AX        0.9040060215        0.9776651987       -0.6551678356    
AX       -0.5231728325         1.756627984        0.1169940580    
AX         1.375943281       -0.3581598750        0.3099163503    
AX       -0.5999640359        -1.216898307        0.5321395921    
AX        0.9501960836         1.181489250         1.179698983    
AX        0.9302697423       -0.6732323896         1.332771037    
AX        0.2870229779       -0.5451519390        -1.350500704    
AX        -1.222760699       -0.7702867634       -0.2392366939    
AX       -0.1718136822       -0.9156090912       -0.4588019887    
AX         1.229007357        -1.448231085        0.5226411394    
AX         1.416180682        0.7418617993        0.2530950648    
AX        -1.016458115         1.058169929       -0.6227928595    
AX       -0.1626219981       -0.5730470187         1.308379666    
AX        0.1714987939        0.5454487936        -1.282840291    
AX       -0.1032891819         1.119336617        0.9388271718    
AX        0.4818094012       -0.4675489792E-01   -0.3885011553    
AX       -0.5981934842        0.3846953659E-01   -0.7367216804    
AX       -0.8293755499E-01    0.7944592759       -0.1245438936    
AX       -0.4436943604       -0.1229135118        0.3162707317    
AX        0.5210629757        0.2723833180        0.6459855480    
AX        0.3968653915       -0.7762616444        0.4132104413    
    38
Energy=    -169.193442256089    
AX        0.3971891592        0.3213024684         1.698874432    
AX        0.9455102381        -1.022303037       -0.5059007638    
AX         1.484518160        0.2439363858         1.243047582    
AX       -0.3939561672E-01     1.561024851       -0.8821802858    
AX         1.498155793        0.2736136993E-01   -0.7154415416    
AX       -0.8039174881        -1.785810769       -0.4280074378    
AX        -1.388116126       -0.3119206126        0.7658568518    
AX        0.5961647785         1.567691700        0.2050759642    
AX        -1.028344934        0.8043208195        0.4507071949    
AX        0.2851150383        -1.583234816         1.133747285    
AX        -1.468772280        0.2482721930        -1.332959186    
AX       -0.7228360043         1.040148555        -1.662391777    
AX       -0.7082210803        0.3375413300         1.377494470    
AX       -0.8847026078       -0.8857404547        -1.278273828    
AX       -0.5457871391       -0.3285180189E-01    -1.876312153    
AX        0.2570607043        -1.789725987        0.3068445104E-01
AX        -1.612577378        0.2206225712       -0.2348440247    
AX        0.9040060244        0.9776652121       -0.6551678262    
AX       -0.5231728436         1.756627984        0.1169940484    
AX         1.375943269       -0.3581598612        0.3099163435    
AX       -0.5999640373        -1.216898308        0.5321395910    
AX        0.9501960761         1.181489255         1.179699000    
AX        0.9302697643       -0.6732324150         1.332771020    
AX        0.2870230180       -0.5451519513        -1.350500693    
AX        -1.222760709       -0.7702867405       -0.2392366698    
AX       -0.1718136865       -0.9156090729       -0.4588019894    
AX         1.229007358        -1.448231085        0.5226410987    
AX         1.416180680        0.7418618121        0.2530950761    
AX        -1.016458131         1.058169929       -0.6227928541    
AX       -0.1626219797       -0.5730470302         1.308379683    
AX        0.1714988101        0.5454487791        -1.282840278    
AX       -0.1032891857         1.119336641        0.9388271670    
AX        0.4818094063       -0.4675489020E-01   -0.3885011414    
AX       -0.5981934857        0.3846954613E-01   -0.7367216638    
AX       -0.8293756138E-01    0.7944592682       -0.1245438827    
AX       -0.4436943586       -0.1229135163        0.3162707446    
AX        0.5210629664        0.2723833226        0.6459855585    
AX        0.3968653908       -0.7762616432        0.4132104348    
    38
Energy=    -169.193442256089    
AX        0.3971891911        0.3213024530         1.698874455    
AX        0.9455102392        -1.022303025       -0.5059007719    
AX         1.484518150        0.2439363846         1.243047587    
AX       -0.3939561970E-01     1.561024835       -0.8821802799    
AX         1.498155792        0.2736137203E-01   -0.7154415514    
AX       -0.8039175051        -1.785810734       -0.4280074731    
AX        -1.388116157       -0.3119205184        0.7658568416    
AX        0.5961647668         1.567691706        0.2050759736    
AX        -1.028344941        0.8043208041        0.4507071887    
AX        0.2851150418        -1.583234831         1.133747266    
AX        -1.468772271        0.2482721104        -1.332959208    
AX       -0.7228360146         1.040148503        -1.662391760    
AX       -0.7082210362        0.3375413374         1.377494467    
AX       -0.8847026334       -0.8857404422        -1.278273808    
AX       -0.5457870979       -0.3285183512E-01    -1.876312154    
AX        0.2570606897        -1.789725987        0.3068442990E-01
AX        -1.612577418        0.2206225893       -0.2348440500    
AX        0.9040060231        0.9776652209       -0.6551678142    
AX       -0.5231728513         1.756627983        0.1169940381    
AX         1.375943262       -0.3581598497        0.3099163370    
AX       -0.5999640365        -1.216898304        0.5321395870    
AX        0.9501960689         1.181489258         1.179699014    
AX        0.9302697884       -0.6732324414         1.332771000    
AX        0.2870230617       -0.5451519595        -1.350500687    
AX        -1.222760715       -0.7702867193       -0.2392366485    
AX       -0.1718136970       -0.9156090668       -0.4588019888    
AX         1.229007357        -1.448231087        0.5226410581    
AX         1.416180677        0.7418618209        0.2530950909    
AX        -1.016458143         1.058169925       -0.6227928479    
AX       -0.1626219587       -0.5730470396         1.308379699    
AX        0.1714988269        0.5454487680        -1.282840265    
AX       -0.1032891896         1.119336666        0.9388271626    
AX        0.4818094201       -0.4675488200E-01   -0.3885011319    
AX       -0.5981934918        0.3846955651E-01   -0.7367216562    
AX       -0.8293756758E-01    0.7944592757       -0.1245438721    
AX       -0.4436943607       -0.1229135262        0.3162707618    
AX        0.5210629594        0.2723833269        0.6459855763    
AX        0.3968653906       -0.7762616476        0.4132104354    
    38
Energy=    -169.193442256088    
AX        0.3971892131        0.3213024307         1.698874469    
AX        0.9455102500        -1.022303006       -0.5059007752    
AX         1.484518144        0.2439363827         1.243047586    
AX       -0.3939562044E-01     1.561024829       -0.8821802800    
AX         1.498155793        0.2736136042E-01   -0.7154415581    
AX       -0.8039175326        -1.785810716       -0.4280075220    
AX        -1.388116166       -0.3119204358        0.7658568405    
AX        0.5961647459         1.567691704        0.2050759746    
AX        -1.028344949        0.8043207961        0.4507071759    
AX        0.2851150377        -1.583234840         1.133747241    
AX        -1.468772274        0.2482720535        -1.332959220    
AX       -0.7228360344         1.040148452        -1.662391752    
AX       -0.7082209994        0.3375413493         1.377494457    
AX       -0.8847026385       -0.8857404381        -1.278273802    
AX       -0.5457870660       -0.3285185634E-01    -1.876312146    
AX        0.2570606793        -1.789725972        0.3068441311E-01
AX        -1.612577470        0.2206225963       -0.2348440721    
AX        0.9040060219        0.9776652038       -0.6551677884    
AX       -0.5231728460         1.756627996        0.1169940299    
AX         1.375943272       -0.3581598453        0.3099163325    
AX       -0.5999640392        -1.216898299        0.5321395867    
AX        0.9501960732         1.181489275         1.179699022    
AX        0.9302698178       -0.6732324727         1.332770982    
AX        0.2870230940       -0.5451519697        -1.350500678    
AX        -1.222760713       -0.7702866889       -0.2392366339    
AX       -0.1718136891       -0.9156090547       -0.4588019948    
AX         1.229007363        -1.448231084        0.5226410250    
AX         1.416180666        0.7418618277        0.2530951159    
AX        -1.016458150         1.058169916       -0.6227928483    
AX       -0.1626219502       -0.5730470632         1.308379728    
AX        0.1714988300        0.5454487601        -1.282840250    
AX       -0.1032891952         1.119336692        0.9388271656    
AX        0.4818094200       -0.4675488085E-01   -0.3885011240    
AX       -0.5981934954        0.3846955535E-01   -0.7367216450    
AX       -0.8293758230E-01    0.7944592734       -0.1245438673    
AX       -0.4436943553       -0.1229135263        0.3162707745    
AX        0.5210629523        0.2723833399        0.6459855932    
AX        0.3968653942       -0.7762616456        0.4132104440    
    38
Energy=    -169.193442256087    
AX        0.3971892210        0.3213024214         1.698874476    
AX        0.9455102572        -1.022302998       -0.5059007766    
AX         1.484518143        0.2439363819         1.243047587    
AX       -0.3939562289E-01     1.561024826       -0.8821802823    
AX         1.498155790        0.2736135274E-01   -0.7154415602    
AX       -0.8039175476        -1.785810702       -0.4280075460    
AX        -1.388116167       -0.3119203989        0.7658568394    
AX        0.5961647355         1.567691704        0.2050759739    
AX        -1.028344953        0.8043207921        0.4507071692    
AX        0.2851150368        -1.583234843         1.133747228    
AX        -1.468772277        0.2482720261        -1.332959223    
AX       -0.7228360462         1.040148426        -1.662391751    
AX       -0.7082209838        0.3375413517         1.377494452    
AX       -0.8847026411       -0.8857404369        -1.278273799    
AX       -0.5457870523       -0.3285186796E-01    -1.876312141    
AX        0.2570606729        -1.789725961        0.3068440489E-01
AX        -1.612577496        0.2206226030       -0.2348440813    
AX        0.9040060180        0.9776651919       -0.6551677777    
AX       -0.5231728436         1.756628003        0.1169940267    
AX         1.375943280       -0.3581598452        0.3099163316    
AX       -0.5999640402        -1.216898295        0.5321395849    
AX        0.9501960754         1.181489283         1.179699024    
AX        0.9302698332       -0.6732324880         1.332770975    
AX        0.2870231125       -0.5451519720        -1.350500675    
AX        -1.222760706       -0.7702866714       -0.2392366282    
AX       -0.1718136889       -0.9156090540       -0.4588019967    
AX         1.229007366        -1.448231085        0.5226410108    
AX         1.416180657        0.7418618279        0.2530951301    
AX        -1.016458152         1.058169912       -0.6227928489    
AX       -0.1626219444       -0.5730470742         1.308379741    
AX        0.1714988341        0.5454487590        -1.282840244    
AX       -0.1032891974         1.119336703        0.9388271681    
AX        0.4818094228       -0.4675487924E-01   -0.3885011221    
AX       -0.5981934978        0.3846955677E-01   -0.7367216424    
AX       -0.8293758944E-01    0.7944592795       -0.1245438651    
AX       -0.4436943546       -0.1229135270        0.3162707813    
AX        0.5210629492        0.2723833464        0.6459856064    
AX        0.3968653981       -0.7762616493        0.4132104502    
    38
Energy=    -169.193442256086    
AX        0.3971892386        0.3213024236         1.698874529    
AX        0.9455102644        -1.022302998       -0.5059007920    
AX         1.484518142        0.2439363797         1.243047615    
AX       -0.3939564915E-01     1.561024809       -0.8821803049    
AX         1.498155769        0.2736133696E-01   -0.7154415731    
AX       -0.8039175997        -1.785810628       -0.4280076129    
AX        -1.388116196       -0.3119202839        0.7658568120    
AX        0.5961647292         1.567691748        0.2050759771    
AX        -1.028344957        0.8043207621        0.4507071690    
AX        0.2851150613        -1.583234855         1.133747210    
AX        -1.468772276        0.2482719022        -1.332959231    
AX       -0.7228360795         1.040148339        -1.662391754    
AX       -0.7082209370        0.3375413348         1.377494446    
AX       -0.8847026934       -0.8857404330        -1.278273773    
AX       -0.5457870080       -0.3285193193E-01    -1.876312123    
AX        0.2570606296        -1.789725948        0.3068437973E-01
AX        -1.612577567        0.2206226483       -0.2348441081    
AX        0.9040060023        0.9776651821       -0.6551677492    
AX       -0.5231728769         1.756628009        0.1169940196    
AX         1.375943300       -0.3581598452        0.3099163380    
AX       -0.5999640294        -1.216898279        0.5321395774    
AX        0.9501960602         1.181489281         1.179699027    
AX        0.9302698860       -0.6732325264         1.332770964    
AX        0.2870232024       -0.5451519583        -1.350500662    
AX        -1.222760690       -0.7702865923       -0.2392366069    
AX       -0.1718136832       -0.9156090350       -0.4588020054    
AX         1.229007375        -1.448231124        0.5226409648    
AX         1.416180625        0.7418618166        0.2530951627    
AX        -1.016458159         1.058169904       -0.6227928512    
AX       -0.1626218791       -0.5730470846         1.308379732    
AX        0.1714988572        0.5454487567        -1.282840255    
AX       -0.1032892127         1.119336732        0.9388271725    
AX        0.4818094171       -0.4675484917E-01   -0.3885010859    
AX       -0.5981934864        0.3846958890E-01   -0.7367216418    
AX       -0.8293757473E-01    0.7944592870       -0.1245438433    
AX       -0.4436943282       -0.1229135398        0.3162707876    
AX        0.5210629292        0.2723833267        0.6459856466    
AX        0.3968653953       -0.7762616559        0.4132104429    
    38
Energy=    -169.193442256085    
AX        0.3971892558        0.3213024385         1.698874590    
AX        0.9455102559        -1.022302995       -0.5059008066    
AX         1.484518139        0.2439363774         1.243047651    
AX       -0.3939568554E-01     1.561024783       -0.8821803303    
AX         1.498155745        0.2736132954E-01   -0.7154415892    
AX       -0.8039176563        -1.785810540       -0.4280076751    
AX        -1.388116236       -0.3119201674        0.7658567752    
AX        0.5961647320         1.567691807        0.2050759850    
AX        -1.028344952        0.8043207241        0.4507071754    
AX        0.2851150949        -1.583234869         1.133747195    
AX        -1.468772273        0.2482717457        -1.332959242    
AX       -0.7228361106         1.040148237        -1.662391751    
AX       -0.7082208870        0.3375413104         1.377494446    
AX       -0.8847027687       -0.8857404239        -1.278273735    
AX       -0.5457869543       -0.3285201176E-01    -1.876312109    
AX        0.2570605792        -1.789725946        0.3068435111E-01
AX        -1.612577633        0.2206227040       -0.2348441315    
AX        0.9040059914        0.9776651961       -0.6551677237    
AX       -0.5231729187         1.756628003        0.1169940133    
AX         1.375943302       -0.3581598530        0.3099163464    
AX       -0.5999640194        -1.216898267        0.5321395696    
AX        0.9501960341         1.181489264         1.179699032    
AX        0.9302699372       -0.6732325624         1.332770949    
AX        0.2870233108       -0.5451519400        -1.350500640    
AX        -1.222760682       -0.7702865024       -0.2392365805    
AX       -0.1718136731       -0.9156089896       -0.4588020367    
AX         1.229007368        -1.448231165        0.5226409130    
AX         1.416180588        0.7418618026        0.2530951862    
AX        -1.016458166         1.058169900       -0.6227928451    
AX       -0.1626218026       -0.5730470757         1.308379718    
AX        0.1714988914        0.5454487512        -1.282840283    
AX       -0.1032892255         1.119336757        0.9388271722    
AX        0.4818094236       -0.4675483833E-01   -0.3885010575    
AX       -0.5981934597        0.3846962692E-01   -0.7367216366    
AX       -0.8293756461E-01    0.7944593135       -0.1245438098    
AX       -0.4436943214       -0.1229135426        0.3162707809    
AX        0.5210629091        0.2723833017        0.6459857126    
AX        0.3968654333       -0.7762616832        0.4132104209    
    38
Energy=    -169.193442256084    
AX        0.3971892634        0.3213024500         1.698874620    
AX        0.9455102504        -1.022303001       -0.5059008152    
AX         1.484518139        0.2439363765         1.243047668    
AX       -0.3939570191E-01     1.561024771       -0.8821803407    
AX         1.498155734        0.2736133233E-01   -0.7154415964    
AX       -0.8039176767        -1.785810499       -0.4280076940    
AX        -1.388116259       -0.3119201190        0.7658567572    
AX        0.5961647377         1.567691838        0.2050759904    
AX        -1.028344950        0.8043207049        0.4507071805    
AX        0.2851151125        -1.583234876         1.133747194    
AX        -1.468772267        0.2482716777        -1.332959249    
AX       -0.7228361200         1.040148198        -1.662391749    
AX       -0.7082208675        0.3375412962         1.377494450    
AX       -0.8847028072       -0.8857404179        -1.278273717    
AX       -0.5457869315       -0.3285204701E-01    -1.876312105    
AX        0.2570605555        -1.789725950        0.3068434079E-01
AX        -1.612577655        0.2206227306       -0.2348441422    
AX        0.9040059851        0.9776652093       -0.6551677184    
AX       -0.5231729433         1.756627997        0.1169940114    
AX         1.375943300       -0.3581598551        0.3099163497    
AX       -0.5999640141        -1.216898261        0.5321395658    
AX        0.9501960194         1.181489252         1.179699034    
AX        0.9302699577       -0.6732325737         1.332770945    
AX        0.2870233578       -0.5451519295        -1.350500633    
AX        -1.222760678       -0.7702864693       -0.2392365692    
AX       -0.1718136759       -0.9156089754       -0.4588020461    
AX         1.229007365        -1.448231188        0.5226408913    
AX         1.416180573        0.7418617953        0.2530951919    
AX        -1.016458169         1.058169900       -0.6227928418    
AX       -0.1626217643       -0.5730470654         1.308379703    
AX        0.1714989093        0.5454487500        -1.282840296    
AX       -0.1032892312         1.119336765        0.9388271709    
AX        0.4818094262       -0.4675482735E-01   -0.3885010402    
AX       -0.5981934481        0.3846964672E-01   -0.7367216363    
AX       -0.8293755245E-01    0.7944593217       -0.1245437937    
AX       -0.4436943137       -0.1229135478        0.3162707769    
AX        0.5210628989        0.2723832832        0.6459857366    
AX        0.3968654427       -0.7762616916        0.4132104067    
    38
Energy=    -169.193442256083    
AX        0.3971892683        0.3213024629         1.698874641    
AX        0.9455102386        -1.022303006       -0.5059008225    
AX         1.484518139        0.2439363750         1.243047678    
AX       -0.3939571112E-01     1.561024761       -0.8821803427    
AX         1.498155731        0.2736134525E-01   -0.7154416015    
AX       -0.8039176832        -1.785810477       -0.4280076965    
AX        -1.388116280       -0.3119200913        0.7658567443    
AX        0.5961647444         1.567691859        0.2050759968    
AX        -1.028344948        0.8043206904        0.4507071865    
AX        0.2851151244        -1.583234880         1.133747199    
AX        -1.468772259        0.2482716320        -1.332959258    
AX       -0.7228361196         1.040148178        -1.662391741    
AX       -0.7082208558        0.3375412899         1.377494457    
AX       -0.8847028384       -0.8857404096        -1.278273703    
AX       -0.5457869144       -0.3285206851E-01    -1.876312107    
AX        0.2570605388        -1.789725962        0.3068433556E-01
AX        -1.612577658        0.2206227447       -0.2348441495    
AX        0.9040059847        0.9776652317       -0.6551677196    
AX       -0.5231729594         1.756627987        0.1169940105    
AX         1.375943288       -0.3581598558        0.3099163482    
AX       -0.5999640110        -1.216898259        0.5321395641    
AX        0.9501960067         1.181489239         1.179699036    