    38
Energy=    -169.316703272421    
AX        0.3778588173        0.1659790219         1.326781810    
AX        0.8330910111        -1.112303785       -0.4923935544    
AX         1.153941784        0.9337578183         1.160973534    
AX        0.6039157223         1.655967174       -0.8413420375    
AX         1.405418446       -0.2852447424       -0.1611096189    
AX       -0.9899588733        -1.644620794       -0.4737328889    
AX        -1.248670636       -0.3618068463        0.8226395153    
AX       -0.1279451256         1.898290243        0.2442374763E-01
AX       -0.7076935215        0.4803555269         1.376298864    
AX        0.1940033706        -1.617821892         1.042715515    
AX        -1.771053524        0.2238227496        -1.103317899    
AX       -0.4696159825         1.506905688        -1.020726651    
AX       -0.3177101025        0.1598470606        0.4428552067    
AX        -1.071443266       -0.6117684559       -0.9963137715    
AX       -0.1083956006       -0.2786118023        -1.594275614    
AX        0.1537939336E-01    -1.642584587       -0.7073581413E-02
AX        -1.264688433        0.1497060149       -0.1212630435    
AX         1.093450423        0.6703521852       -0.6271697026    
AX       -0.8769539029         1.085733692        0.3426992151    
AX         1.418689624       -0.1577429037        0.9390560758    
AX       -0.8825707233        -1.444382315        0.6688827569    
AX        0.9113340211         1.433247130        0.1828980109    
AX        0.7817861821       -0.8368051233         1.493957934    
AX        0.9812772570       -0.2593591343        -1.241969901    
AX        -1.659967839       -0.8795464370       -0.6358164219E-01
AX       -0.1264106371        -1.153315373       -0.9724055625    
AX         1.305899360        -1.220682286        0.5428689136    
AX         1.763170253        0.6869050217        0.2625839793    
AX        -1.419240428         1.147048463       -0.6021119358    
AX       -0.3134980557       -0.6591322470         1.238915526    
AX        0.2996353634        0.7053980398        -1.348046262    
AX        0.8821827462E-01     1.117574065        0.8391588417    
AX        0.2094519268       -0.1451777942       -0.5162648956    
AX       -0.6670749631        0.4089227166       -0.9592642592    
AX        0.2784104454E-01    0.8908514123       -0.2823481934    
AX       -0.5715497583       -0.7237759457       -0.5076137401E-01
AX        0.7180199174        0.3715516553        0.3296210829    
AX        0.4120591805       -0.6575332149        0.4381418588    
    38
Energy=    -169.316703272421    
AX        0.3778588177        0.1659790206         1.326781809    
AX        0.8330910034        -1.112303789       -0.4923935559    
AX         1.153941781        0.9337578132         1.160973533    
AX        0.6039157073         1.655967157       -0.8413420267    
AX         1.405418443       -0.2852447396       -0.1611096230    
AX       -0.9899588701        -1.644620801       -0.4737328822    
AX        -1.248670637       -0.3618068358        0.8226395138    
AX       -0.1279451494         1.898290242        0.2442374945E-01
AX       -0.7076935210        0.4803555413         1.376298864    
AX        0.1940033541        -1.617821896         1.042715524    
AX        -1.771053525        0.2238227526        -1.103317892    
AX       -0.4696159819         1.506905686        -1.020726681    
AX       -0.3177100997        0.1598470600        0.4428552139    
AX        -1.071443260       -0.6117684547       -0.9963137699    
AX       -0.1083955815       -0.2786118059        -1.594275620    
AX        0.1537939457E-01    -1.642584591       -0.7073580260E-02
AX        -1.264688408        0.1497060154       -0.1212630534    
AX         1.093450426        0.6703521898       -0.6271697026    
AX       -0.8769539125         1.085733686        0.3426992566    
AX         1.418689621       -0.1577429060        0.9390560661    
AX       -0.8825707328        -1.444382319        0.6688827602    
AX        0.9113340181         1.433247133        0.1828980144    
AX        0.7817861842       -0.8368051314         1.493957930    
AX        0.9812772576       -0.2593591276        -1.241969892    
AX        -1.659967832       -0.8795464355       -0.6358164051E-01
AX       -0.1264106398        -1.153315374       -0.9724055612    
AX         1.305899357        -1.220682294        0.5428689032    
AX         1.763170258        0.6869050259        0.2625839768    
AX        -1.419240402         1.147048466       -0.6021119167    
AX       -0.3134980548       -0.6591322455         1.238915519    
AX        0.2996353758        0.7053980380        -1.348046274    
AX        0.8821827697E-01     1.117574074        0.8391588458    
AX        0.2094519159       -0.1451777927       -0.5162648872    
AX       -0.6670749624        0.4089227189       -0.9592642897    
AX        0.2784102047E-01    0.8908514106       -0.2823481927    
AX       -0.5715497483       -0.7237759417       -0.5076137331E-01
AX        0.7180199206        0.3715516619        0.3296210764    
AX        0.4120591865       -0.6575332114        0.4381418590    
    38
Energy=    -169.316703272420    
AX        0.3778588090        0.1659790009         1.326781798    
AX        0.8330910031        -1.112303795       -0.4923935405    
AX         1.153941770        0.9337577942         1.160973525    
AX        0.6039156617         1.655967162       -0.8413420258    
AX         1.405418433       -0.2852447285       -0.1611096404    
AX       -0.9899588616        -1.644620789       -0.4737328720    
AX        -1.248670631       -0.3618068012        0.8226395155    
AX       -0.1279451904         1.898290228        0.2442374935E-01
AX       -0.7076935228        0.4803555793         1.376298861    
AX        0.1940033272        -1.617821928         1.042715551    
AX        -1.771053536        0.2238227828        -1.103317874    
AX       -0.4696159914         1.506905682        -1.020726735    
AX       -0.3177100865        0.1598470697        0.4428552421    
AX        -1.071443253       -0.6117684376       -0.9963137448    
AX       -0.1083955337       -0.2786118267        -1.594275640    
AX        0.1537940175E-01    -1.642584595       -0.7073558690E-02
AX        -1.264688313        0.1497060116       -0.1212630936    
AX         1.093450428        0.6703522215       -0.6271697042    
AX       -0.8769539301         1.085733670        0.3426993484    
AX         1.418689602       -0.1577429199        0.9390560416    
AX       -0.8825707672        -1.444382331        0.6688827572    
AX        0.9113339974         1.433247138        0.1828980011    
AX        0.7817861865       -0.8368051567         1.493957916    
AX        0.9812772872       -0.2593591188        -1.241969863    
AX        -1.659967813       -0.8795464161       -0.6358162229E-01
AX       -0.1264106379        -1.153315364       -0.9724055422    
AX         1.305899341        -1.220682319        0.5428688888    
AX         1.763170255        0.6869050306        0.2625839701    
AX        -1.419240347         1.147048464       -0.6021118620    
AX       -0.3134980633       -0.6591322724         1.238915505    
AX        0.2996354033        0.7053980279        -1.348046285    
AX        0.8821828614E-01     1.117574080        0.8391588511    
AX        0.2094519065       -0.1451777882       -0.5162648918    
AX       -0.6670749713        0.4089227287       -0.9592643960    
AX        0.2784096372E-01    0.8908513951       -0.2823481984    
AX       -0.5715497276       -0.7237759586       -0.5076135592E-01
AX        0.7180199071        0.3715516857        0.3296210561    
AX        0.4120592086       -0.6575332054        0.4381418685    
    38
Energy=    -169.316703272419    
AX        0.3778588005        0.1659789839         1.326781790    
AX        0.8330910026        -1.112303799       -0.4923935277    
AX         1.153941762        0.9337577793         1.160973520    
AX        0.6039156251         1.655967169       -0.8413420262    
AX         1.405418422       -0.2852447163       -0.1611096518    
AX       -0.9899588545        -1.644620779       -0.4737328648    
AX        -1.248670626       -0.3618067772        0.8226395135    
AX       -0.1279452173         1.898290216        0.2442374932E-01
AX       -0.7076935272        0.4803556085         1.376298860    
AX        0.1940033077        -1.617821952         1.042715571    
AX        -1.771053547        0.2238228081        -1.103317863    
AX       -0.4696159974         1.506905675        -1.020726771    
AX       -0.3177100767        0.1598470548        0.4428552554    
AX        -1.071443254       -0.6117684236       -0.9963137292    
AX       -0.1083955013       -0.2786118409        -1.594275652    
AX        0.1537940700E-01    -1.642584597       -0.7073539474E-02
AX        -1.264688242        0.1497060032       -0.1212631174    
AX         1.093450430        0.6703522451       -0.6271697030    
AX       -0.8769539450         1.085733663        0.3426994130    
AX         1.418689588       -0.1577429280        0.9390560209    
AX       -0.8825707921        -1.444382338        0.6688827506    
AX        0.9113339826         1.433247143        0.1828979877    
AX        0.7817861895       -0.8368051738         1.493957904    
AX        0.9812773092       -0.2593591126        -1.241969839    
AX        -1.659967798       -0.8795464002       -0.6358160749E-01
AX       -0.1264106336        -1.153315357       -0.9724055300    
AX         1.305899331        -1.220682339        0.5428688772    
AX         1.763170252        0.6869050322        0.2625839633    
AX        -1.419240306         1.147048461       -0.6021118209    
AX       -0.3134980679       -0.6591322934         1.238915493    
AX        0.2996354201        0.7053980165        -1.348046287    
AX        0.8821829359E-01     1.117574088        0.8391588573    
AX        0.2094519063       -0.1451777839       -0.5162648969    
AX       -0.6670749697        0.4089227382       -0.9592644792    
AX        0.2784091778E-01    0.8908513901       -0.2823482115    
AX       -0.5715497084       -0.7237759644       -0.5076132785E-01
AX        0.7180199051        0.3715516906        0.3296210432    
AX        0.4120592131       -0.6575331879        0.4381418762    
    38
Energy=    -169.316703272418    
AX        0.3778587927        0.1659789640         1.326781778    
AX        0.8330910140        -1.112303799       -0.4923935141    
AX         1.153941765        0.9337577705         1.160973514    
AX        0.6039156019         1.655967204       -0.8413420417    
AX         1.405418413       -0.2852447046       -0.1611096600    
AX       -0.9899588508        -1.644620760       -0.4737328684    
AX        -1.248670622       -0.3618067497        0.8226395128    
AX       -0.1279452308         1.898290199        0.2442374445E-01
AX       -0.7076935356        0.4803556354         1.376298862    
AX        0.1940032989        -1.617821978         1.042715591    
AX        -1.771053557        0.2238228374        -1.103317843    
AX       -0.4696160085         1.506905673        -1.020726796    
AX       -0.3177100666        0.1598470483        0.4428552696    
AX        -1.071443255       -0.6117684081       -0.9963137056    
AX       -0.1083954751       -0.2786118623        -1.594275670    
AX        0.1537941650E-01    -1.642584596       -0.7073517748E-02
AX        -1.264688174        0.1497059959       -0.1212631410    
AX         1.093450427        0.6703522718       -0.6271697029    
AX       -0.8769539571         1.085733653        0.3426994641    
AX         1.418689572       -0.1577429387        0.9390560057    
AX       -0.8825708184        -1.444382345        0.6688827441    
AX        0.9113339657         1.433247149        0.1828979702    
AX        0.7817861862       -0.8368051878         1.493957891    
AX        0.9812773449       -0.2593591181        -1.241969826    
AX        -1.659967788       -0.8795463801       -0.6358159405E-01
AX       -0.1264106264        -1.153315346       -0.9724055084    
AX         1.305899328        -1.220682360        0.5428688762    
AX         1.763170239        0.6869050282        0.2625839613    
AX        -1.419240281         1.147048452       -0.6021117853    
AX       -0.3134980797       -0.6591323226         1.238915491    
AX        0.2996354290        0.7053980069        -1.348046275    
AX        0.8821830193E-01     1.117574080        0.8391588611    
AX        0.2094519041       -0.1451777811       -0.5162649150    
AX       -0.6670749751        0.4089227446       -0.9592645563    
AX        0.2784088477E-01    0.8908513777       -0.2823482238    
AX       -0.5715496901       -0.7237759715       -0.5076130607E-01
AX        0.7180198859        0.3715517000        0.3296210342    
AX        0.4120592216       -0.6575331817        0.4381418802    
    38
Energy=    -169.316703272418    
AX        0.3778587911        0.1659789610         1.326781776    
AX        0.8330910175        -1.112303798       -0.4923935121    
AX         1.153941769        0.9337577706         1.160973514    
AX        0.6039155993         1.655967216       -0.8413420460    
AX         1.405418410       -0.2852447033       -0.1611096600    
AX       -0.9899588490        -1.644620755       -0.4737328717    
AX        -1.248670622       -0.3618067455        0.8226395121    
AX       -0.1279452305         1.898290196        0.2442374281E-01
AX       -0.7076935395        0.4803556427         1.376298863    
AX        0.1940032974        -1.617821982         1.042715596    
AX        -1.771053560        0.2238228421        -1.103317837    
AX       -0.4696160112         1.506905670        -1.020726799    
AX       -0.3177100641        0.1598470448        0.4428552709    
AX        -1.071443258       -0.6117684065       -0.9963137025    
AX       -0.1083954733       -0.2786118668        -1.594275676    
AX        0.1537941948E-01    -1.642584595       -0.7073512798E-02
AX        -1.264688164        0.1497059940       -0.1212631423    
AX         1.093450425        0.6703522758       -0.6271697017    
AX       -0.8769539606         1.085733653        0.3426994728    
AX         1.418689572       -0.1577429401        0.9390560045    
AX       -0.8825708227        -1.444382344        0.6688827397    
AX        0.9113339644         1.433247150        0.1828979664    
AX        0.7817861861       -0.8368051884         1.493957886    
AX        0.9812773533       -0.2593591229        -1.241969827    
AX        -1.659967786       -0.8795463761       -0.6358159430E-01
AX       -0.1264106241        -1.153315343       -0.9724055042    
AX         1.305899329        -1.220682365        0.5428688758    
AX         1.763170237        0.6869050248        0.2625839619    
AX        -1.419240278         1.147048447       -0.6021117791    
AX       -0.3134980835       -0.6591323277         1.238915492    
AX        0.2996354280        0.7053980036        -1.348046268    
AX        0.8821830449E-01     1.117574077        0.8391588616    
AX        0.2094519067       -0.1451777786       -0.5162649214    
AX       -0.6670749752        0.4089227432       -0.9592645674    
AX        0.2784088055E-01    0.8908513751       -0.2823482253    
AX       -0.5715496862       -0.7237759713       -0.5076130188E-01
AX        0.7180198791        0.3715517009        0.3296210351    
AX        0.4120592209       -0.6575331799        0.4381418802    
    38
Energy=    -169.316703272408    
AX        0.3778587800        0.1659789874         1.326781810    
AX        0.8330910112        -1.112303795       -0.4923935270    
AX         1.153941793        0.9337577899         1.160973535    
AX        0.6039156179         1.655967211       -0.8413420367    
AX         1.405418399       -0.2852447246       -0.1611096465    
AX       -0.9899588260        -1.644620767       -0.4737328876    
AX        -1.248670640       -0.3618067949        0.8226395057    
AX       -0.1279451993         1.898290236        0.2442375036E-01
AX       -0.7076935655        0.4803556628         1.376298849    
AX        0.1940032898        -1.617821946         1.042715587    
AX        -1.771053567        0.2238228133        -1.103317838    
AX       -0.4696160131         1.506905633        -1.020726783    
AX       -0.3177100341        0.1598470331        0.4428552311    
AX        -1.071443300       -0.6117684415       -0.9963137578    
AX       -0.1083955296       -0.2786118399        -1.594275677    
AX        0.1537941788E-01    -1.642584578       -0.7073523412E-02
AX        -1.264688256        0.1497059874       -0.1212630741    
AX         1.093450417        0.6703522349       -0.6271696726    
AX       -0.8769539643         1.085733683        0.3426994376    
AX         1.418689637       -0.1577429310        0.9390560419    
AX       -0.8825707907        -1.444382305        0.6688826927    
AX        0.9113340031         1.433247136        0.1828979723    
AX        0.7817862024       -0.8368051535         1.493957859    
AX        0.9812773370       -0.2593591499        -1.241969860    
AX        -1.659967782       -0.8795463944       -0.6358163265E-01
AX       -0.1264106161        -1.153315336       -0.9724055320    
AX         1.305899331        -1.220682348        0.5428688553    
AX         1.763170264        0.6869050037        0.2625839591    
AX        -1.419240301         1.147048427       -0.6021118015    
AX       -0.3134980785       -0.6591322934         1.238915506    
AX        0.2996353933        0.7053979809        -1.348046229    
AX        0.8821831335E-01     1.117574091        0.8391588558    
AX        0.2094519621       -0.1451777358       -0.5162649092    
AX       -0.6670749398        0.4089226978       -0.9592644678    
AX        0.2784094480E-01    0.8908513272       -0.2823481681    
AX       -0.5715496953       -0.7237759539       -0.5076132609E-01
AX        0.7180198180        0.3715517074        0.3296210278    
AX        0.4120591668       -0.6575331548        0.4381418749    
    38
Energy=    -169.316703272415    
AX        0.3778588118        0.1659789055         1.326781723    
AX        0.8330910320        -1.112303787       -0.4923934936    
AX         1.153941744        0.9337577571         1.160973493    
AX        0.6039155837         1.655967255       -0.8413420658    
AX         1.405418433       -0.2852446808       -0.1611096870    
AX       -0.9899588878        -1.644620735       -0.4737328436    
AX        -1.248670606       -0.3618066539        0.8226395092    
AX       -0.1279452881         1.898290154        0.2442373097E-01
AX       -0.7076934934        0.4803556163         1.376298921    
AX        0.1940033126        -1.617822040         1.042715609    
AX        -1.771053553        0.2238228799        -1.103317835    
AX       -0.4696160167         1.506905746        -1.020726842    
AX       -0.3177100459        0.1598470339        0.4428552960    
AX        -1.071443203       -0.6117683469       -0.9963136158    
AX       -0.1083953876       -0.2786119078        -1.594275681    
AX        0.1537942410E-01    -1.642584631       -0.7073489855E-02
AX        -1.264688030        0.1497059898       -0.1212632311    
AX         1.093450432        0.6703523411       -0.6271697347    
AX       -0.8769539823         1.085733614        0.3426995294    
AX         1.418689487       -0.1577429765        0.9390559706    
AX       -0.8825708696        -1.444382393        0.6688828009    
AX        0.9113339043         1.433247178        0.1828979572    
AX        0.7817861648       -0.8368052426         1.493957929    
AX        0.9812773849       -0.2593590891        -1.241969777    
AX        -1.659967792       -0.8795463358       -0.6358153843E-01
AX       -0.1264106350        -1.153315360       -0.9724054589    
AX         1.305899350        -1.220682416        0.5428689153    
AX         1.763170207        0.6869050530        0.2625839721    
AX        -1.419240246         1.147048478       -0.6021117505    
AX       -0.3134980924       -0.6591323830         1.238915465    
AX        0.2996354606        0.7053980370        -1.348046321    
AX        0.8821829691E-01     1.117574045        0.8391588662    
AX        0.2094518254       -0.1451778050       -0.5162649483    
AX       -0.6670749983        0.4089228240       -0.9592647578    
AX        0.2784081555E-01    0.8908513716       -0.2823482889    
AX       -0.5715496692       -0.7237760177       -0.5076120568E-01
AX        0.7180198585        0.3715517099        0.3296209923    
AX        0.4120592714       -0.6575331882        0.4381418864    
    38
Energy=    -169.316703272412    
AX        0.3778588342        0.1659788548         1.326781678    
AX        0.8330910343        -1.112303781       -0.4923934817    
AX         1.153941708        0.9337577449         1.160973476    
AX        0.6039155728         1.655967261       -0.8413420722    
AX         1.405418464       -0.2852446605       -0.1611097170    
AX       -0.9899589309        -1.644620728       -0.4737328028    
AX        -1.248670588       -0.3618065733        0.8226395046    
AX       -0.1279453500         1.898290126        0.2442372675E-01
AX       -0.7076934383        0.4803555709         1.376298982    
AX        0.1940033298        -1.617822089         1.042715610    
AX        -1.771053539        0.2238229051        -1.103317852    
AX       -0.4696160165         1.506905830        -1.020726880    
AX       -0.3177100198        0.1598470230        0.4428553099    
AX        -1.071443144       -0.6117682899       -0.9963135427    
AX       -0.1083953046       -0.2786119323        -1.594275669    
AX        0.1537941724E-01    -1.642584669       -0.7073480093E-02
AX        -1.264687926        0.1497059871       -0.1212633107    
AX         1.093450445        0.6703523943       -0.6271697636    
AX       -0.8769539979         1.085733579        0.3426995645    
AX         1.418689405       -0.1577430138        0.9390559428    
AX       -0.8825709022        -1.444382440        0.6688828693    
AX        0.9113338477         1.433247200        0.1828979583    
AX        0.7817861455       -0.8368052947         1.493957989    
AX        0.9812773893       -0.2593590384        -1.241969721    
AX        -1.659967800       -0.8795463063       -0.6358147909E-01
AX       -0.1264106501        -1.153315390       -0.9724054271    
AX         1.305899371        -1.220682458        0.5428689545    
AX         1.763170186        0.6869050941        0.2625839779    
AX        -1.419240218         1.147048523       -0.6021117363    
AX       -0.3134980875       -0.6591324238         1.238915432    
AX        0.2996354923        0.7053980760        -1.348046398    
AX        0.8821828329E-01     1.117574023        0.8391588711    
AX        0.2094517419       -0.1451778271       -0.5162649550    
AX       -0.6670750081        0.4089229132       -0.9592649281    
AX        0.2784076951E-01    0.8908513535       -0.2823483428    
AX       -0.5715496657       -0.7237760748       -0.5076110277E-01
AX        0.7180198391        0.3715517209        0.3296209227    
AX        0.4120593117       -0.6575331905        0.4381418937    
    38
Energy=    -169.316703272409    
AX        0.3778588450        0.1659788300         1.326781656    
AX        0.8330910261        -1.112303785       -0.4923934738    
AX         1.153941677        0.9337577324         1.160973466    
AX        0.6039155619         1.655967239       -0.8413420670    
AX         1.405418484       -0.2852446483       -0.1611097372    
AX       -0.9899589552        -1.644620731       -0.4737327707    
AX        -1.248670574       -0.3618065375        0.8226395041    
AX       -0.1279453884         1.898290113        0.2442372953E-01
AX       -0.7076934020        0.4803555363         1.376299009    
AX        0.1940033378        -1.617822112         1.042715605    
AX        -1.771053527        0.2238229193        -1.103317877    
AX       -0.4696160120         1.506905874        -1.020726899    
AX       -0.3177100099        0.1598470250        0.4428553175    
AX        -1.071443108       -0.6117682596       -0.9963135076    
AX       -0.1083952577       -0.2786119371        -1.594275649    
AX        0.1537940666E-01    -1.642584687       -0.7073481483E-02
AX        -1.264687875        0.1497059865       -0.1212633560    
AX         1.093450457        0.6703524195       -0.6271697799    
AX       -0.8769539983         1.085733560        0.3426995765    
AX         1.418689358       -0.1577430327        0.9390559240    
AX       -0.8825709156        -1.444382469        0.6688829148    
AX        0.9113338160         1.433247208        0.1828979623    
AX        0.7817861357       -0.8368053246         1.493958028    
AX        0.9812773780       -0.2593589955        -1.241969682    
AX        -1.659967804       -0.8795462964       -0.6358143988E-01
AX       -0.1264106616        -1.153315412       -0.9724054170    
AX         1.305899374        -1.220682472        0.5428689714    
AX         1.763170178        0.6869051254        0.2625839752    
AX        -1.419240199         1.147048556       -0.6021117323    
AX       -0.3134980752       -0.6591324403         1.238915409    
AX        0.2996355167        0.7053980996        -1.348046453    
AX        0.8821827176E-01     1.117574020        0.8391588736    
AX        0.2094516932       -0.1451778443       -0.5162649413    
AX       -0.6670750123        0.4089229649       -0.9592650112    
AX        0.2784074546E-01    0.8908513450       -0.2823483689    
AX       -0.5715496685       -0.7237761077       -0.5076105572E-01
AX        0.7180198448        0.3715517283        0.3296208775    
AX        0.4120593354       -0.6575331908        0.4381419008    
    38
Energy=    -169.316703272407    
AX        0.3778588424        0.1659788222         1.326781653    
AX        0.8330910194        -1.112303796       -0.4923934716    
AX         1.153941661        0.9337577236         1.160973463    
AX        0.6039155519         1.655967213       -0.8413420637    
AX         1.405418491       -0.2852446375       -0.1611097491    
AX       -0.9899589638        -1.644620737       -0.4737327570    
AX        -1.248670561       -0.3618065303        0.8226395041    
AX       -0.1279454014         1.898290110        0.2442373568E-01
AX       -0.7076933967        0.4803555209         1.376299010    
AX        0.1940033380        -1.617822120         1.042715603    
AX        -1.771053519        0.2238229316        -1.103317893    
AX       -0.4696160116         1.506905886        -1.020726905    
AX       -0.3177100089        0.1598470282        0.4428553215    
AX        -1.071443096       -0.6117682495       -0.9963135020    
AX       -0.1083952358       -0.2786119345        -1.594275633    
AX        0.1537939680E-01    -1.642584686       -0.7073485600E-02
AX        -1.264687858        0.1497059867       -0.1212633708    
AX         1.093450468        0.6703524279       -0.6271697822    
AX       -0.8769539882         1.085733552        0.3426995791    
AX         1.418689339       -0.1577430392        0.9390559113    
AX       -0.8825709182        -1.444382481        0.6688829341    
AX        0.9113338027         1.433247208        0.1828979646    
AX        0.7817861297       -0.8368053344         1.493958045    
AX        0.9812773682       -0.2593589689        -1.241969664    
AX        -1.659967803       -0.8795462996       -0.6358141560E-01
AX       -0.1264106646        -1.153315425       -0.9724054159    
AX         1.305899369        -1.220682470        0.5428689734    
AX         1.763170174        0.6869051476        0.2625839667    
AX        -1.419240190         1.147048575       -0.6021117260    
AX       -0.3134980635       -0.6591324463         1.238915403    
AX        0.2996355313        0.7053981047        -1.348046482    
AX        0.8821826684E-01     1.117574025        0.8391588800    
AX        0.2094516743       -0.1451778533       -0.5162649227    
AX       -0.6670750093        0.4089229842       -0.9592650369    
AX        0.2784073983E-01    0.8908513338       -0.2823483753    
AX       -0.5715496734       -0.7237761173       -0.5076104687E-01
AX        0.7180198598        0.3715517356        0.3296208465    
AX        0.4120593406       -0.6575331915        0.4381419044    
    38
Energy=    -169.316703272401    
AX        0.3778588342        0.1659788142         1.326781667    
AX        0.8330910091        -1.112303818       -0.4923934659    
AX         1.153941651        0.9337577194         1.160973460    
AX        0.6039155483         1.655967191       -0.8413420645    
AX         1.405418493       -0.2852446171       -0.1611097496    
AX       -0.9899589706        -1.644620743       -0.4737327530    
AX        -1.248670554       -0.3618065298        0.8226394976    
AX       -0.1279454068         1.898290112        0.2442374595E-01
AX       -0.7076933995        0.4803555087         1.376299005    
AX        0.1940033412        -1.617822121         1.042715603    
AX        -1.771053519        0.2238229415        -1.103317896    
AX       -0.4696160144         1.506905904        -1.020726907    
AX       -0.3177100344        0.1598470200        0.4428553174    
AX        -1.071443080       -0.6117682335       -0.9963134958    
AX       -0.1083952248       -0.2786119300        -1.594275623    
AX        0.1537939049E-01    -1.642584688       -0.7073493273E-02
AX        -1.264687827        0.1497059847       -0.1212633799    
AX         1.093450473        0.6703524236       -0.6271697645    
AX       -0.8769539795         1.085733546        0.3426995851    
AX         1.418689330       -0.1577430391        0.9390559021    
AX       -0.8825709238        -1.444382501        0.6688829558    
AX        0.9113337932         1.433247199        0.1828979663    