    38
Energy=    -170.376934510609    
AX        0.3992137582        0.3155333503         1.692504765    
AX         1.019440185       -0.9329363102       -0.5007721862    
AX         1.492800289        0.2611689940         1.241023397    
AX       -0.3739930393E-01     1.259390735       -0.7627263823    
AX         1.556779846        0.3583435439E-01   -0.7283598450    
AX       -0.7230769647        -1.444716975       -0.2115573571    
AX        -1.460105113       -0.1911477659        0.8038802155    
AX        0.5324943736         1.325591989        0.1705442989    
AX        -1.193220128        0.8412654133        0.5622296641    
AX        0.2086835556        -1.524200274        0.9982631578    
AX        -1.469358830        0.2938885018        -1.355867957    
AX       -0.6659952309        0.9923218751        -1.633625591    
AX       -0.3937710881       -0.8278205220E-04    0.9673149343    
AX        -1.125253719       -0.6818937985       -0.9561933929    
AX       -0.3233781760       -0.3520854991        -1.758846392    
AX        0.3250936264        -1.689744848       -0.1161325847    
AX        -1.586442581        0.1532446810       -0.2659948643    
AX         1.036678968         1.014563138       -0.7711509913    
AX       -0.5272331755         1.673334079        0.1731383159    
AX         1.370129837       -0.3177195950        0.3031094497    
AX       -0.7541800156        -1.048452603        0.8217977838    
AX        0.9390840161         1.199674434         1.181885689    
AX        0.8148471432       -0.6001098670         1.228684621    
AX        0.7711159715       -0.4295104800        -1.423256437    
AX        -1.652398799       -0.9254253055        0.1554757038E-01
AX       -0.3573510732E-01   -0.7950424985       -0.7656749660    
AX         1.177951453        -1.368667466        0.5094026933    
AX         1.478669138        0.7601511661        0.2081977036    
AX        -1.100547964         1.073214990       -0.5699729703    
AX       -0.1495498658       -0.7367708119         1.719764803    
AX        0.3427510633        0.5486032526        -1.497339816    
AX       -0.1564104665         1.072396156         1.047002743    
AX        0.5154700318        0.1032439681       -0.4439657733    
AX       -0.4928810551        0.2184889222       -0.8783966132    
AX       -0.2840111958        0.6149994450        0.7059549650E-01
AX       -0.6981707801       -0.3661364622       -0.3511786053E-02
AX        0.5764175776        0.3228519552        0.6275840490    
AX        0.2714987254       -0.6751180573        0.3008745535    
    38
Energy=    -170.376934510608    
AX        0.3992137595        0.3155333505         1.692504763    
AX         1.019440189       -0.9329363126       -0.5007721878    
AX         1.492800286        0.2611689947         1.241023391    
AX       -0.3739930368E-01     1.259390737       -0.7627263854    
AX         1.556779848        0.3583435847E-01   -0.7283598329    
AX       -0.7230769641        -1.444716968       -0.2115573533    
AX        -1.460105116       -0.1911477649        0.8038802139    
AX        0.5324943817         1.325592001        0.1705443048    
AX        -1.193220121        0.8412654164        0.5622296641    
AX        0.2086835627        -1.524200278        0.9982631639    
AX        -1.469358834        0.2938885004        -1.355867955    
AX       -0.6659952291        0.9923218687        -1.633625591    
AX       -0.3937710941       -0.8278302339E-04    0.9673149270    
AX        -1.125253723       -0.6818937991       -0.9561933978    
AX       -0.3233781756       -0.3520854957        -1.758846396    
AX        0.3250936214        -1.689744842       -0.1161325881    
AX        -1.586442588        0.1532446829       -0.2659948645    
AX         1.036678965         1.014563137       -0.7711509913    
AX       -0.5272331721         1.673334077        0.1731383073    
AX         1.370129837       -0.3177195916        0.3031094544    
AX       -0.7541800135        -1.048452601        0.8217977818    
AX        0.9390840181         1.199674435         1.181885699    
AX        0.8148471463       -0.6001098629         1.228684616    
AX        0.7711159705       -0.4295104842        -1.423256427    
AX        -1.652398801       -0.9254253048        0.1554756655E-01
AX       -0.3573510599E-01   -0.7950424986       -0.7656749670    
AX         1.177951451        -1.368667470        0.5094026864    
AX         1.478669134        0.7601511627        0.2081976993    
AX        -1.100547968         1.073214984       -0.5699729744    
AX       -0.1495498593       -0.7367708219         1.719764795    
AX        0.3427510622        0.5486032472        -1.497339805    
AX       -0.1564104644         1.072396155         1.047002743    
AX        0.5154700361        0.1032439616       -0.4439657726    
AX       -0.4928810582        0.2184889190       -0.8783966225    
AX       -0.2840112098        0.6149994463        0.7059550564E-01
AX       -0.6981707656       -0.3661364576       -0.3511770718E-02
AX        0.5764175851        0.3228519569        0.6275840507    
AX        0.2714987150       -0.6751180561        0.3008745505    
    38
Energy=    -170.376934510607    
AX        0.3992137402        0.3155333764         1.692504766    
AX         1.019440166       -0.9329363006       -0.5007721925    
AX         1.492800292        0.2611689911         1.241023398    
AX       -0.3739928794E-01     1.259390714       -0.7627263784    
AX         1.556779846        0.3583432336E-01   -0.7283599195    
AX       -0.7230769902        -1.444716970       -0.2115574153    
AX        -1.460105132       -0.1911478300        0.8038802538    
AX        0.5324943776         1.325591996        0.1705442881    
AX        -1.193220099        0.8412653299        0.5622297011    
AX        0.2086835702        -1.524200249        0.9982632060    
AX        -1.469358815        0.2938885646        -1.355867899    
AX       -0.6659951957        0.9923218732        -1.633625618    
AX       -0.3937710894       -0.8279036359E-04    0.9673149170    
AX        -1.125253739       -0.6818937666       -0.9561934067    
AX       -0.3233781689       -0.3520855058        -1.758846411    
AX        0.3250936129        -1.689744838       -0.1161325428    
AX        -1.586442641        0.1532446658       -0.2659948203    
AX         1.036679014         1.014563143       -0.7711509851    
AX       -0.5272331764         1.673334030        0.1731383380    
AX         1.370129827       -0.3177195605        0.3031094166    
AX       -0.7541799985        -1.048452623        0.8217977466    
AX        0.9390840297         1.199674447         1.181885671    
AX        0.8148470922       -0.6001098256         1.228684605    
AX        0.7711159457       -0.4295105086        -1.423256476    
AX        -1.652398825       -0.9254253281        0.1554757493E-01
AX       -0.3573511041E-01   -0.7950425001       -0.7656749778    
AX         1.177951456        -1.368667421        0.5094027103    
AX         1.478669163        0.7601512062        0.2081977249    
AX        -1.100547939         1.073214936       -0.5699729508    
AX       -0.1495499098       -0.7367707679         1.719764828    
AX        0.3427511082        0.5486032610        -1.497339813    
AX       -0.1564104716         1.072396145         1.047002770    
AX        0.5154700598        0.1032439687       -0.4439657768    
AX       -0.4928810039        0.2184889263       -0.8783966216    
AX       -0.2840111620        0.6149994285        0.7059548380E-01
AX       -0.6981708154       -0.3661364709       -0.3511798122E-02
AX        0.5764175734        0.3228519728        0.6275840632    
AX        0.2714986972       -0.6751180427        0.3008745410    
    38
Energy=    -170.376934510606    
AX        0.3992137258        0.3155333955         1.692504773    
AX         1.019440142       -0.9329362939       -0.5007721988    
AX         1.492800292        0.2611689854         1.241023408    
AX       -0.3739926964E-01     1.259390701       -0.7627263819    
AX         1.556779840        0.3583430014E-01   -0.7283599908    
AX       -0.7230770053        -1.444716988       -0.2115574570    
AX        -1.460105133       -0.1911478767        0.8038802844    
AX        0.5324943754         1.325591982        0.1705442783    
AX        -1.193220077        0.8412652669        0.5622297146    
AX        0.2086835709        -1.524200217        0.9982632273    
AX        -1.469358797        0.2938886101        -1.355867862    
AX       -0.6659951674        0.9923218847        -1.633625623    
AX       -0.3937710903       -0.8279984723E-04    0.9673149007    
AX        -1.125253750       -0.6818937459       -0.9561934162    
AX       -0.3233781696       -0.3520855119        -1.758846417    
AX        0.3250936076        -1.689744836       -0.1161325051    
AX        -1.586442679        0.1532446603       -0.2659947938    
AX         1.036679047         1.014563149       -0.7711509788    
AX       -0.5272331887         1.673334005        0.1731383661    
AX         1.370129822       -0.3177195309        0.3031093899    
AX       -0.7541799890        -1.048452639        0.8217977246    
AX        0.9390840342         1.199674450         1.181885647    
AX        0.8148470573       -0.6001098014         1.228684610    
AX        0.7711159269       -0.4295105284        -1.423256514    
AX        -1.652398839       -0.9254253495        0.1554758198E-01
AX       -0.3573511765E-01   -0.7950424968       -0.7656749797    
AX         1.177951459        -1.368667383        0.5094027314    
AX         1.478669182        0.7601512315        0.2081977505    
AX        -1.100547917         1.073214911       -0.5699729259    
AX       -0.1495499515       -0.7367707305         1.719764862    
AX        0.3427511446        0.5486032731        -1.497339834    
AX       -0.1564104768         1.072396137         1.047002774    
AX        0.5154700847        0.1032439763       -0.4439657927    
AX       -0.4928809712        0.2184889223       -0.8783966377    
AX       -0.2840111599        0.6149994059        0.7059549187E-01
AX       -0.6981708340       -0.3661364704       -0.3511806232E-02
AX        0.5764175883        0.3228519764        0.6275840685    
AX        0.2714986838       -0.6751180235        0.3008745288    
    38
Energy=    -170.376934510604    
AX        0.3992137203        0.3155334073         1.692504787    
AX         1.019440123       -0.9329362974       -0.5007722051    
AX         1.492800291        0.2611689827         1.241023420    
AX       -0.3739926277E-01     1.259390702       -0.7627263848    
AX         1.556779841        0.3583428306E-01   -0.7283600393    
AX       -0.7230770057        -1.444717011       -0.2115574790    
AX        -1.460105124       -0.1911479002        0.8038803007    
AX        0.5324943623         1.325591949        0.1705442623    
AX        -1.193220075        0.8412652318        0.5622297164    
AX        0.2086835541        -1.524200192        0.9982632252    
AX        -1.469358780        0.2938886239        -1.355867853    
AX       -0.6659951594        0.9923219007        -1.633625615    
AX       -0.3937710883       -0.8280342685E-04    0.9673148998    
AX        -1.125253747       -0.6818937390       -0.9561934131    
AX       -0.3233781716       -0.3520855168        -1.758846405    
AX        0.3250936109        -1.689744848       -0.1161324843    
AX        -1.586442685        0.1532446594       -0.2659947873    
AX         1.036679057         1.014563143       -0.7711509792    
AX       -0.5272332029         1.673334002        0.1731384023    
AX         1.370129818       -0.3177195194        0.3031093713    
AX       -0.7541799910        -1.048452647        0.8217977150    
AX        0.9390840325         1.199674453         1.181885618    
AX        0.8148470412       -0.6001097975         1.228684630    
AX        0.7711159288       -0.4295105205        -1.423256537    
AX        -1.652398829       -0.9254253633        0.1554759004E-01
AX       -0.3573512296E-01   -0.7950424892       -0.7656749760    
AX         1.177951454        -1.368667359        0.5094027521    
AX         1.478669191        0.7601512375        0.2081977671    
AX        -1.100547905         1.073214918       -0.5699729012    
AX       -0.1495499841       -0.7367706994         1.719764889    
AX        0.3427511564        0.5486032904        -1.497339870    
AX       -0.1564104781         1.072396133         1.047002768    
AX        0.5154700934        0.1032439858       -0.4439658001    
AX       -0.4928809569        0.2184889244       -0.8783966456    
AX       -0.2840111443        0.6149993963        0.7059549430E-01
AX       -0.6981708474       -0.3661364752       -0.3511819353E-02
AX        0.5764175935        0.3228519681        0.6275840614    
AX        0.2714986909       -0.6751180126        0.3008745258    
    38
Energy=    -170.376934510602    
AX        0.3992137224        0.3155334117         1.692504802    
AX         1.019440114       -0.9329363053       -0.5007722098    
AX         1.492800289        0.2611689829         1.241023424    
AX       -0.3739926504E-01     1.259390715       -0.7627263915    
AX         1.556779847        0.3583427502E-01   -0.7283600560    
AX       -0.7230769935        -1.444717029       -0.2115574820    
AX        -1.460105114       -0.1911479002        0.8038803036    
AX        0.5324943530         1.325591921        0.1705442481    
AX        -1.193220075        0.8412652238        0.5622297077    
AX        0.2086835286        -1.524200182        0.9982632080    
AX        -1.469358767        0.2938886121        -1.355867863    
AX       -0.6659951685        0.9923219132        -1.633625604    
AX       -0.3937710907       -0.8280174237E-04    0.9673149035    
AX        -1.125253737       -0.6818937416       -0.9561934034    
AX       -0.3233781732       -0.3520855177        -1.758846383    
AX        0.3250936212        -1.689744865       -0.1161324842    
AX        -1.586442669        0.1532446601       -0.2659947939    
AX         1.036679050         1.014563130       -0.7711509857    
AX       -0.5272332114         1.673334010        0.1731384315    
AX         1.370129813       -0.3177195198        0.3031093654    
AX       -0.7541800016        -1.048452647        0.8217977187    
AX        0.9390840286         1.199674455         1.181885592    
AX        0.8148470375       -0.6001098055         1.228684650    
AX        0.7711159454       -0.4295104937        -1.423256542    
AX        -1.652398812       -0.9254253695        0.1554759787E-01
AX       -0.3573512405E-01   -0.7950424812       -0.7656749733    
AX         1.177951446        -1.368667354        0.5094027675    
AX         1.478669189        0.7601512286        0.2081977720    
AX        -1.100547903         1.073214940       -0.5699728835    
AX       -0.1495500029       -0.7367706814         1.719764903    
AX        0.3427511472        0.5486033067        -1.497339904    
AX       -0.1564104783         1.072396131         1.047002760    
AX        0.5154700991        0.1032439891       -0.4439658025    
AX       -0.4928809611        0.2184889219       -0.8783966539    
AX       -0.2840111413        0.6149993981        0.7059551089E-01
AX       -0.6981708494       -0.3661364724       -0.3511830499E-02
AX        0.5764176023        0.3228519558        0.6275840522    
AX        0.2714987059       -0.6751180140        0.3008745273    
    38
Energy=    -170.376934510597    
AX        0.3992136757        0.3155334446         1.692504793    
AX         1.019440081       -0.9329362974       -0.5007722003    
AX         1.492800288        0.2611689811         1.241023448    
AX       -0.3739919503E-01     1.259390649       -0.7627263715    
AX         1.556779821        0.3583427997E-01   -0.7283601529    
AX       -0.7230770670        -1.444717045       -0.2115575432    
AX        -1.460105094       -0.1911479982        0.8038803467    
AX        0.5324943715         1.325591947        0.1705443029    
AX        -1.193220066        0.8412651393        0.5622297329    
AX        0.2086836327        -1.524200098        0.9982632872    
AX        -1.469358784        0.2938887352        -1.355867785    
AX       -0.6659950446        0.9923219118        -1.633625571    
AX       -0.3937710601       -0.8285457323E-04    0.9673148629    
AX        -1.125253814       -0.6818937064       -0.9561934521    
AX       -0.3233782024       -0.3520855235        -1.758846474    
AX        0.3250935414        -1.689744774       -0.1161323832    
AX        -1.586442810        0.1532446569       -0.2659947364    
AX         1.036679115         1.014563185       -0.7711509333    
AX       -0.5272332313         1.673333983        0.1731383877    
AX         1.370129846       -0.3177194689        0.3031093091    
AX       -0.7541799298        -1.048452697        0.8217976587    
AX        0.9390840238         1.199674449         1.181885674    
AX        0.8148470128       -0.6001097343         1.228684641    
AX        0.7711158564       -0.4295106535        -1.423256580    
AX        -1.652398857       -0.9254253956        0.1554756355E-01
AX       -0.3573518324E-01   -0.7950424763       -0.7656749588    
AX         1.177951465        -1.368667261        0.5094027424    
AX         1.478669231        0.7601512853        0.2081978138    
AX        -1.100547868         1.073214845       -0.5699728647    
AX       -0.1495500278       -0.7367707079         1.719764926    
AX        0.3427512771        0.5486032460        -1.497339878    
AX       -0.1564104664         1.072396108         1.047002717    
AX        0.5154701063        0.1032440099       -0.4439658379    
AX       -0.4928809084        0.2184889005       -0.8783966570    
AX       -0.2840111315        0.6149993124        0.7059545083E-01
AX       -0.6981708823       -0.3661364538       -0.3511825919E-02
AX        0.5764176232        0.3228519977        0.6275840423    
AX        0.2714986560       -0.6751179202        0.3008745042    
    38
Energy=    -170.376934510591    
AX        0.3992136219        0.3155334753         1.692504784    
AX         1.019440057       -0.9329362843       -0.5007721952    
AX         1.492800291        0.2611689746         1.241023459    
AX       -0.3739912148E-01     1.259390578       -0.7627263401    
AX         1.556779793        0.3583429690E-01   -0.7283602262    
AX       -0.7230771358        -1.444717042       -0.2115575893    
AX        -1.460105081       -0.1911480813        0.8038803765    
AX        0.5324943849         1.325591985        0.1705443618    
AX        -1.193220042        0.8412650736        0.5622297587    
AX        0.2086837398        -1.524200023        0.9982633586    
AX        -1.469358803        0.2938888566        -1.355867700    
AX       -0.6659949293        0.9923219051        -1.633625537    
AX       -0.3937710200       -0.8290168357E-04    0.9673148450    
AX        -1.125253881       -0.6818936648       -0.9561934858    
AX       -0.3233782353       -0.3520855174        -1.758846555    
AX        0.3250934755        -1.689744683       -0.1161322967    
AX        -1.586442942        0.1532446321       -0.2659946667    
AX         1.036679180         1.014563249       -0.7711508856    
AX       -0.5272332305         1.673333939        0.1731383159    
AX         1.370129870       -0.3177194030        0.3031092751    
AX       -0.7541798626        -1.048452749        0.8217976141    
AX        0.9390840270         1.199674444         1.181885776    
AX        0.8148469718       -0.6001096594         1.228684604    
AX        0.7711157678       -0.4295108183        -1.423256611    
AX        -1.652398903       -0.9254254140        0.1554752698E-01
AX       -0.3573524238E-01   -0.7950424758       -0.7656749579    
AX         1.177951490        -1.368667181        0.5094027182    
AX         1.478669271        0.7601513330        0.2081978452    
AX        -1.100547841         1.073214742       -0.5699728527    
AX       -0.1495500501       -0.7367707482         1.719764942    
AX        0.3427513982        0.5486031757        -1.497339832    
AX       -0.1564104610         1.072396085         1.047002664    
AX        0.5154701278        0.1032440264       -0.4439658708    
AX       -0.4928808749        0.2184888324       -0.8783967231    
AX       -0.2840111033        0.6149992995        0.7059546048E-01
AX       -0.6981709920       -0.3661364542       -0.3511870748E-02
AX        0.5764176495        0.3228520385        0.6275840166    
AX        0.2714986355       -0.6751178413        0.3008744942    
    38
Energy=    -170.376934510585    
AX        0.3992135962        0.3155334823         1.692504761    
AX         1.019440055       -0.9329362633       -0.5007721845    
AX         1.492800298        0.2611689727         1.241023457    
AX       -0.3739908751E-01     1.259390533       -0.7627263232    
AX         1.556779770        0.3583430689E-01   -0.7283602464    
AX       -0.7230771855        -1.444717021       -0.2115576177    
AX        -1.460105092       -0.1911481225        0.8038803905    
AX        0.5324944049         1.325592038        0.1705444020    
AX        -1.193220021        0.8412650438        0.5622297811    
AX        0.2086838163        -1.524200007        0.9982634151    
AX        -1.469358823        0.2938889305        -1.355867645    
AX       -0.6659948697        0.9923218862        -1.633625548    
AX       -0.3937710055       -0.8292156960E-04    0.9673148269    
AX        -1.125253922       -0.6818936377       -0.9561935153    
AX       -0.3233782440       -0.3520855144        -1.758846613    
AX        0.3250934362        -1.689744627       -0.1161322559    
AX        -1.586443020        0.1532446203       -0.2659946253    
AX         1.036679223         1.014563293       -0.7711508565    
AX       -0.5272332206         1.673333902        0.1731382548    
AX         1.370129883       -0.3177193705        0.3031092660    
AX       -0.7541798171        -1.048452773        0.8217975889    
AX        0.9390840340         1.199674440         1.181885842    
AX        0.8148469540       -0.6001096158         1.228684561    
AX        0.7711157077       -0.4295109204        -1.423256630    
AX        -1.652398956       -0.9254254159        0.1554750489E-01
AX       -0.3573526350E-01   -0.7950424884       -0.7656749635    
AX         1.177951517        -1.368667152        0.5094026947    
AX         1.478669293        0.7601513720        0.2081978571    
AX        -1.100547826         1.073214666       -0.5699728693    
AX       -0.1495500393       -0.7367707761         1.719764937    
AX        0.3427514632        0.5486031301        -1.497339769    
AX       -0.1564104646         1.072396081         1.047002662    
AX        0.5154701388        0.1032440271       -0.4439658844    
AX       -0.4928808510        0.2184888045       -0.8783967420    
AX       -0.2840111054        0.6149992864        0.7059545519E-01
AX       -0.6981710362       -0.3661364525       -0.3511877812E-02
AX        0.5764176562        0.3228520748        0.6275840239    
AX        0.2714986029       -0.6751178106        0.3008744872    
    38
Energy=    -170.376934510579    
AX        0.3992135831        0.3155334791         1.692504731    
AX         1.019440058       -0.9329362388       -0.5007721775    
AX         1.492800305        0.2611689696         1.241023451    
AX       -0.3739907258E-01     1.259390499       -0.7627263078    
AX         1.556779747        0.3583431131E-01   -0.7283602499    
AX       -0.7230772245        -1.444716994       -0.2115576365    
AX        -1.460105112       -0.1911481467        0.8038803980    
AX        0.5324944165         1.325592087        0.1705444255    
AX        -1.193219999        0.8412650263        0.5622298014    
AX        0.2086838714        -1.524200013        0.9982634593    
AX        -1.469358836        0.2938889830        -1.355867603    
AX       -0.6659948381        0.9923218651        -1.633625578    
AX       -0.3937710005       -0.8292737266E-04    0.9673148218    
AX        -1.125253942       -0.6818936156       -0.9561935359    
AX       -0.3233782414       -0.3520855120        -1.758846656    
AX        0.3250934159        -1.689744596       -0.1161322348    
AX        -1.586443067        0.1532446104       -0.2659945939    
AX         1.036679258         1.014563326       -0.7711508376    
AX       -0.5272332080         1.673333864        0.1731382065    
AX         1.370129886       -0.3177193458        0.3031092719    
AX       -0.7541797866        -1.048452782        0.8217975738    
AX        0.9390840447         1.199674434         1.181885883    
AX        0.8148469418       -0.6001095875         1.228684516    
AX        0.7711156621       -0.4295109889        -1.423256646    
AX        -1.652399003       -0.9254254107        0.1554749287E-01
AX       -0.3573526436E-01   -0.7950425058       -0.7656749725    
AX         1.177951543        -1.368667146        0.5094026779    
AX         1.478669309        0.7601514036        0.2081978630    
AX        -1.100547814         1.073214608       -0.5699728941    
AX       -0.1495500211       -0.7367707902         1.719764927    
AX        0.3427515004        0.5486031018        -1.497339708    
AX       -0.1564104734         1.072396086         1.047002677    
AX        0.5154701520        0.1032440226       -0.4439658955    
AX       -0.4928808315        0.2184887928       -0.8783967566    
AX       -0.2840111204        0.6149993040        0.7059545120E-01
AX       -0.6981710774       -0.3661364672       -0.3511880551E-02
AX        0.5764176618        0.3228520999        0.6275840499    
AX        0.2714985789       -0.6751178062        0.3008744867    
    38
Energy=    -170.376934510553    
AX        0.3992135724        0.3155334503         1.692504728    
AX         1.019439966       -0.9329362292       -0.5007721351    
AX         1.492800360        0.2611690775         1.241023401    
AX       -0.3739906540E-01     1.259390463       -0.7627262730    
AX         1.556779716        0.3583430797E-01   -0.7283602988    
AX       -0.7230774276        -1.444716997       -0.2115577969    
AX        -1.460105038       -0.1911482270        0.8038803945    
AX        0.5324944093         1.325592163        0.1705444855    
AX        -1.193219937        0.8412649583        0.5622297420    
AX        0.2086840279        -1.524200048        0.9982635170    
AX        -1.469358857        0.2938890647        -1.355867595    
AX       -0.6659947208        0.9923217506        -1.633625621    
AX       -0.3937709668       -0.8296312278E-04    0.9673148252    
AX        -1.125254050       -0.6818935701       -0.9561935714    
AX       -0.3233782737       -0.3520854946        -1.758846659    
AX        0.3250932675        -1.689744518       -0.1161321538    
AX        -1.586443167        0.1532446294       -0.2659945916    
AX         1.036679256         1.014563334       -0.7711507332    
AX       -0.5272332116         1.673333819        0.1731381622    
AX         1.370129879       -0.3177192863        0.3031092498    
AX       -0.7541796104        -1.048452827        0.8217974546    
AX        0.9390839592         1.199674475         1.181885993    
AX        0.8148470430       -0.6001095381         1.228684496    
AX        0.7711156712       -0.4295111320        -1.423256686    
AX        -1.652399141       -0.9254253682        0.1554744246E-01
AX       -0.3573532082E-01   -0.7950425176       -0.7656749722    
AX         1.177951600        -1.368667132        0.5094026487    
AX         1.478669356        0.7601514792        0.2081979150    
AX        -1.100547774         1.073214568       -0.5699729072    
AX       -0.1495499373       -0.7367707799         1.719764885    
AX        0.3427515857        0.5486029958        -1.497339595    
AX       -0.1564105293         1.072396097         1.047002697    
AX        0.5154701886        0.1032439524       -0.4439659253    
AX       -0.4928808376        0.2184888261       -0.8783967144    
AX       -0.2840111160        0.6149993688        0.7059537722E-01
AX       -0.6981711958       -0.3661365261       -0.3511891955E-02
AX        0.5764177904        0.3228521447        0.6275841469    
AX        0.2714985293       -0.6751177706        0.3008745609    
    38
Energy=    -170.376934510533    
AX        0.3992135492        0.3155333933         1.692504777    
AX         1.019439787       -0.9329361940       -0.5007720153    
AX         1.492800566        0.2611693320         1.241023314    
AX       -0.3739902160E-01     1.259390444       -0.7627262936    
AX         1.556779687        0.3583427678E-01   -0.7283603953    
AX       -0.7230778846        -1.444717022       -0.2115582108    
AX        -1.460104903       -0.1911483916        0.8038803944    
AX        0.5324944397         1.325592330        0.1705446489    
AX        -1.193219836        0.8412647930        0.5622296425    
AX        0.2086843846        -1.524200164        0.9982636934    
AX        -1.469358912        0.2938892471        -1.355867559    
AX       -0.6659944910        0.9923214804        -1.633625790    
AX       -0.3937708596       -0.8294924334E-04    0.9673146970    
AX        -1.125254260       -0.6818934266       -0.9561936807    
AX       -0.3233783289       -0.3520854369        -1.758846615    
AX        0.3250929175        -1.689744365       -0.1161319817    
AX        -1.586443414        0.1532446825       -0.2659945954    
AX         1.036679254         1.014563349       -0.7711505066    
AX       -0.5272332043         1.673333786        0.1731380898    
AX         1.370129881       -0.3177191798        0.3031091849    
AX       -0.7541791878        -1.048452979        0.8217972278    
AX        0.9390837651         1.199674605         1.181886264    