    38
Energy=    -169.595963474127    
AX        0.3812229308        0.3184096646         1.711228686    
AX        0.9516388637       -0.9876486632       -0.5361745829    
AX         1.489507445        0.2132521782         1.246362770    
AX        0.5183538196E-01     1.667799823       -0.7845779318    
AX         1.496002989        0.3440506976E-01   -0.7193329759    
AX       -0.8259012855        -1.750178172       -0.3871727785    
AX        -1.447141704       -0.2206386769        0.6749483466    
AX        0.6433727142         1.582136345        0.2413639187    
AX        -1.027139129        0.8472170194        0.4318729049    
AX        0.2362985675        -1.584479059         1.051383903    
AX        -1.494855600       -0.2002695159        -1.266915888    
AX       -0.9385600376        0.6936408449        -1.593942875    
AX       -0.7409047092        0.3317427153         1.358785784    
AX       -0.9824619973        -1.172242631        -1.297567278    
AX       -0.4138194634       -0.2975455080        -1.621609009    
AX        0.2295555998        -1.741851753       -0.6818944046E-01
AX        -1.643692571        0.3331896725       -0.3015083479    
AX        0.9191789154        0.9868762595       -0.6510399894    
AX       -0.4761875771         1.809812614        0.1979456336    
AX         1.362294206       -0.3637394429        0.2950296336    
AX       -0.6413420936        -1.145630139        0.4989006204    
AX        0.9663424440         1.159158719         1.206309203    
AX        0.9164425343       -0.6986486001         1.274348068    
AX        0.6512737804       -0.3450780308        -1.385138818    
AX        -1.221419833       -0.6964185900       -0.3044378170    
AX       -0.1719566570       -0.8441243480       -0.6085912009    
AX         1.188961097        -1.453786786        0.4668133390    
AX         1.419880182        0.7342452188        0.2619536536    
AX       -0.9535447961         1.193121576       -0.6164322078    
AX       -0.1564121870       -0.5636057579         1.291720330    
AX        0.1048145400        0.6359548840        -1.247797059    
AX       -0.9158820550E-01     1.107357568        0.9710453292    
AX        0.4713791291        0.3306925740E-03   -0.3861640166    
AX       -0.6402053056        0.1436551732       -0.6687998911    
AX       -0.5937577297E-01    0.8471971089       -0.8963226131E-01
AX       -0.4442625112       -0.7356670669E-01    0.3430793798    
AX        0.5311107000        0.2636400399        0.6620412507    
AX        0.3596594185       -0.7636908054        0.3498916155    
    38
Energy=    -169.595963474126    
AX        0.3812229243        0.3184096380         1.711228667    
AX        0.9516388597       -0.9876486626       -0.5361745727    
AX         1.489507472        0.2132521836         1.246362763    
AX        0.5183537490E-01     1.667799811       -0.7845779441    
AX         1.496002981        0.3440506518E-01   -0.7193329864    
AX       -0.8259012756        -1.750178185       -0.3871728057    
AX        -1.447141691       -0.2206387025        0.6749483553    
AX        0.6433727055         1.582136324        0.2413639281    
AX        -1.027139132        0.8472170208        0.4318729149    
AX        0.2362985684        -1.584479042         1.051383909    
AX        -1.494855602       -0.2002694885        -1.266915885    
AX       -0.9385600219        0.6936408598        -1.593942879    
AX       -0.7409047147        0.3317427191         1.358785798    
AX       -0.9824620192        -1.172242617        -1.297567285    
AX       -0.4138194675       -0.2975455081        -1.621609017    
AX        0.2295556024        -1.741851749       -0.6818942557E-01
AX        -1.643692572        0.3331896643       -0.3015083289    
AX        0.9191789150        0.9868762530       -0.6510399703    
AX       -0.4761875648         1.809812612        0.1979456361    
AX         1.362294212       -0.3637394295        0.2950296310    
AX       -0.6413420860        -1.145630144        0.4989005952    
AX        0.9663424437         1.159158708         1.206309209    
AX        0.9164425084       -0.6986485589         1.274348074    
AX        0.6512737742       -0.3450780575        -1.385138822    
AX        -1.221419837       -0.6964185930       -0.3044378260    
AX       -0.1719566616       -0.8441243574       -0.6085912028    
AX         1.188961093        -1.453786768        0.4668133622    
AX         1.419880236        0.7342452396        0.2619536580    
AX       -0.9535448105         1.193121571       -0.6164322010    
AX       -0.1564122199       -0.5636057753         1.291720330    
AX        0.1048145552        0.6359548695        -1.247797062    
AX       -0.9158820859E-01     1.107357558        0.9710453287    
AX        0.4713791235        0.3306877411E-03   -0.3861640309    
AX       -0.6402053086        0.1436551625       -0.6687998852    
AX       -0.5937578573E-01    0.8471971122       -0.8963226935E-01
AX       -0.4442625077       -0.7356669626E-01    0.3430793861    
AX        0.5311107258        0.2636400673        0.6620412278    
AX        0.3596594138       -0.7636907910        0.3498916255    
    38
Energy=    -169.595963474124    
AX        0.3812229289        0.3184096155         1.711228651    
AX        0.9516388581       -0.9876486602       -0.5361745684    
AX         1.489507476        0.2132521881         1.246362761    
AX        0.5183536648E-01     1.667799799       -0.7845779555    
AX         1.496002970        0.3440505785E-01   -0.7193329921    
AX       -0.8259012616        -1.750178202       -0.3871728312    
AX        -1.447141670       -0.2206387437        0.6749483761    
AX        0.6433727001         1.582136313        0.2413639260    
AX        -1.027139132        0.8472170274        0.4318729321    
AX        0.2362985596        -1.584479026         1.051383909    
AX        -1.494855599       -0.2002694638        -1.266915883    
AX       -0.9385600048        0.6936408806        -1.593942882    
AX       -0.7409047087        0.3317427330         1.358785811    
AX       -0.9824620350        -1.172242608        -1.297567292    
AX       -0.4138194733       -0.2975455110        -1.621609033    
AX        0.2295556078        -1.741851746       -0.6818941641E-01
AX        -1.643692559        0.3331896435       -0.3015083004    
AX        0.9191789159        0.9868762483       -0.6510399597    
AX       -0.4761875551         1.809812615        0.1979456330    
AX         1.362294213       -0.3637394194        0.2950296338    
AX       -0.6413420799        -1.145630149        0.4989005725    
AX        0.9663424471         1.159158707         1.206309208    
AX        0.9164424755       -0.6986485337         1.274348079    
AX        0.6512737623       -0.3450780785        -1.385138819    
AX        -1.221419835       -0.6964185965       -0.3044378408    
AX       -0.1719566667       -0.8441243644       -0.6085912112    
AX         1.188961083        -1.453786756        0.4668133826    
AX         1.419880273        0.7342452498        0.2619536615    
AX       -0.9535448265         1.193121564       -0.6164321868    
AX       -0.1564122476       -0.5636057940         1.291720325    
AX        0.1048145818        0.6359548625        -1.247797069    
AX       -0.9158820692E-01     1.107357566        0.9710453276    
AX        0.4713791265        0.3306857540E-03   -0.3861640535    
AX       -0.6402053116        0.1436551437       -0.6687998652    
AX       -0.5937580066E-01    0.8471971274       -0.8963227201E-01
AX       -0.4442625159       -0.7356668194E-01    0.3430793762    
AX        0.5311107409        0.2636400947        0.6620412154    
AX        0.3596594042       -0.7636907877        0.3498916489    
    38
Energy=    -169.595963474124    
AX        0.3812229150        0.3184095739         1.711228605    
AX        0.9516388521       -0.9876486698       -0.5361745524    
AX         1.489507575        0.2132521912         1.246362753    
AX        0.5183536335E-01     1.667799796       -0.7845779566    
AX         1.496002963        0.3440506540E-01   -0.7193329979    
AX       -0.8259012929        -1.750178164       -0.3871728340    
AX        -1.447141712       -0.2206386308        0.6749483113    
AX        0.6433726891         1.582136274        0.2413639828    
AX        -1.027139137        0.8472170156        0.4318728876    
AX        0.2362986148        -1.584479042         1.051383925    
AX        -1.494855631       -0.2002694723        -1.266915890    
AX       -0.9385600357        0.6936408428        -1.593942895    
AX       -0.7409047565        0.3317426846         1.358785797    
AX       -0.9824620379        -1.172242580        -1.297567296    
AX       -0.4138194552       -0.2975455006        -1.621608991    
AX        0.2295555883        -1.741851736       -0.6818938815E-01
AX        -1.643692617        0.3331897162       -0.3015083669    
AX        0.9191788863        0.9868762213       -0.6510399159    
AX       -0.4761875773         1.809812589        0.1979456445    
AX         1.362294246       -0.3637394010        0.2950296226    
AX       -0.6413420580        -1.145630144        0.4989005650    
AX        0.9663424368         1.159158660         1.206309261    
AX        0.9164425111       -0.6986484806         1.274348089    
AX        0.6512737966       -0.3450780977        -1.385138843    
AX        -1.221419870       -0.6964185766       -0.3044378169    
AX       -0.1719566797       -0.8441243668       -0.6085911728    
AX         1.188961124        -1.453786735        0.4668133940    
AX         1.419880339        0.7342452985        0.2619536774    
AX       -0.9535448119         1.193121574       -0.6164322360    
AX       -0.1564122511       -0.5636058160         1.291720350    
AX        0.1048145354        0.6359548296        -1.247797053    
AX       -0.9158822274E-01     1.107357505        0.9710453364    
AX        0.4713790910        0.3306596143E-03   -0.3861640529    
AX       -0.6402053376        0.1436551618       -0.6687998777    
AX       -0.5937579917E-01    0.8471971004       -0.8963228530E-01
AX       -0.4442624760       -0.7356669023E-01    0.3430794225    
AX        0.5311107959        0.2636401143        0.6620411658    
AX        0.3596594368       -0.7636907699        0.3498916330    
    38
Energy=    -169.595963474122    
AX        0.3812229265        0.3184095431         1.711228566    
AX        0.9516388541       -0.9876486798       -0.5361745552    
AX         1.489507632        0.2132521928         1.246362754    
AX        0.5183536101E-01     1.667799798       -0.7845779476    
AX         1.496002951        0.3440506932E-01   -0.7193329911    
AX       -0.8259013252        -1.750178124       -0.3871728192    
AX        -1.447141753       -0.2206385128        0.6749482491    
AX        0.6433726866         1.582136259        0.2413640244    
AX        -1.027139136        0.8472170092        0.4318728463    
AX        0.2362986615        -1.584479066         1.051383928    
AX        -1.494855659       -0.2002695014        -1.266915902    
AX       -0.9385600758        0.6936408043        -1.593942906    
AX       -0.7409047881        0.3317426470         1.358785774    
AX       -0.9824620189        -1.172242566        -1.297567295    
AX       -0.4138194357       -0.2975454970        -1.621608959    
AX        0.2295555704        -1.741851729       -0.6818937304E-01
AX        -1.643692656        0.3331897797       -0.3015084409    
AX        0.9191788515        0.9868761955       -0.6510398897    
AX       -0.4761876149         1.809812566        0.1979456431    
AX         1.362294270       -0.3637393944        0.2950296208    
AX       -0.6413420377        -1.145630133        0.4989005725    
AX        0.9663424337         1.159158632         1.206309306    
AX        0.9164425445       -0.6986484697         1.274348090    
AX        0.6512738267       -0.3450780955        -1.385138856    
AX        -1.221419897       -0.6964185497       -0.3044378004    
AX       -0.1719567032       -0.8441243600       -0.6085911416    
AX         1.188961164        -1.453786726        0.4668133906    
AX         1.419880364        0.7342453221        0.2619536925    
AX       -0.9535447927         1.193121585       -0.6164322799    
AX       -0.1564122244       -0.5636058439         1.291720370    
AX        0.1048145069        0.6359548222        -1.247797039    
AX       -0.9158823254E-01     1.107357470        0.9710453438    
AX        0.4713790741        0.3306405119E-03   -0.3861640675    
AX       -0.6402053758        0.1436551598       -0.6687998474    
AX       -0.5937579599E-01    0.8471970976       -0.8963228384E-01
AX       -0.4442624593       -0.7356669255E-01    0.3430794336    
AX        0.5311108313        0.2636401217        0.6620411341    
AX        0.3596594738       -0.7636907753        0.3498916576    
    38
Energy=    -169.595963474122    
AX        0.3812229247        0.3184095515         1.711228567    
AX        0.9516388577       -0.9876486830       -0.5361745596    
AX         1.489507637        0.2132521921         1.246362755    
AX        0.5183536571E-01     1.667799803       -0.7845779401    
AX         1.496002954        0.3440507447E-01   -0.7193329868    
AX       -0.8259013377        -1.750178110       -0.3871728046    
AX        -1.447141767       -0.2206384777        0.6749482321    
AX        0.6433726900         1.582136262        0.2413640305    
AX        -1.027139135        0.8472170047        0.4318728313    
AX        0.2362986715        -1.584479075         1.051383928    
AX        -1.494855666       -0.2002695187        -1.266915905    
AX       -0.9385600916        0.6936407893        -1.593942907    
AX       -0.7409047983        0.3317426364         1.358785765    
AX       -0.9824620085        -1.172242568        -1.297567291    
AX       -0.4138194294       -0.2975454969        -1.621608947    
AX        0.2295555644        -1.741851730       -0.6818937595E-01
AX        -1.643692667        0.3331897976       -0.3015084650    
AX        0.9191788445        0.9868761929       -0.6510398933    
AX       -0.4761876237         1.809812561        0.1979456445    
AX         1.362294273       -0.3637393973        0.2950296193    
AX       -0.6413420367        -1.145630130        0.4989005856    
AX        0.9663424314         1.159158629         1.206309314    
AX        0.9164425625       -0.6986484808         1.274348085    
AX        0.6512738375       -0.3450780848        -1.385138858    
AX        -1.221419900       -0.6964185416       -0.3044377914    
AX       -0.1719567061       -0.8441243545       -0.6085911360    
AX         1.188961174        -1.453786731        0.4668133804    
AX         1.419880347        0.7342453206        0.2619536939    
AX       -0.9535447810         1.193121592       -0.6164322925    
AX       -0.1564122050       -0.5636058399         1.291720373    
AX        0.1048144946        0.6359548269        -1.247797035    
AX       -0.9158823473E-01     1.107357461        0.9710453449    
AX        0.4713790742        0.3306382410E-03   -0.3861640648    
AX       -0.6402053843        0.1436551647       -0.6687998422    
AX       -0.5937578868E-01    0.8471970939       -0.8963228091E-01
AX       -0.4442624573       -0.7356669713E-01    0.3430794328    
AX        0.5311108300        0.2636401091        0.6620411380    
AX        0.3596594851       -0.7636907838        0.3498916566    
    38
Energy=    -169.595963474113    
AX        0.3812228682        0.3184096595         1.711228647    
AX        0.9516388735       -0.9876486887       -0.5361745655    
AX         1.489507619        0.2132521872         1.246362761    
AX        0.5183540148E-01     1.667799835       -0.7845779055    
AX         1.496002997        0.3440511083E-01   -0.7193329758    
AX       -0.8259013762        -1.750178071       -0.3871727345    
AX        -1.447141793       -0.2206384144        0.6749482068    
AX        0.6433727004         1.582136286        0.2413640122    
AX        -1.027139116        0.8472169683        0.4318727860    
AX        0.2362986794        -1.584479101         1.051383924    
AX        -1.494855669       -0.2002695818        -1.266915892    
AX       -0.9385601467        0.6936407477        -1.593942909    
AX       -0.7409048390        0.3317426163         1.358785743    
AX       -0.9824619769        -1.172242596        -1.297567265    
AX       -0.4138194135       -0.2975455066        -1.621608917    
AX        0.2295555481        -1.741851753       -0.6818941361E-01
AX        -1.643692685        0.3331898294       -0.3015085181    
AX        0.9191788519        0.9868762149       -0.6510399530    
AX       -0.4761876099         1.809812548        0.1979456695    
AX         1.362294241       -0.3637394289        0.2950296068    
AX       -0.6413420760        -1.145630150        0.4989006638    
AX        0.9663424144         1.159158636         1.206309302    
AX        0.9164426312       -0.6986485534         1.274348038    
AX        0.6512738732       -0.3450780256        -1.385138860    
AX        -1.221419863       -0.6964185079       -0.3044377555    
AX       -0.1719566952       -0.8441243292       -0.6085911533    
AX         1.188961169        -1.453786757        0.4668133211    
AX         1.419880205        0.7342452922        0.2619536809    
AX       -0.9535447313         1.193121635       -0.6164323215    
AX       -0.1564121152       -0.5636057640         1.291720375    
AX        0.1048144625        0.6359548677        -1.247797043    
AX       -0.9158824587E-01     1.107357429        0.9710453373    
AX        0.4713791019        0.3306485562E-03   -0.3861640028    
AX       -0.6402054165        0.1436551618       -0.6687998133    
AX       -0.5937573154E-01    0.8471970814       -0.8963225457E-01
AX       -0.4442625081       -0.7356668868E-01    0.3430793909    
AX        0.5311107941        0.2636400050        0.6620411917    
AX        0.3596595779       -0.7636908422        0.3498915972    
    38
Energy=    -169.595963474117    
AX        0.3812230878        0.3184093501         1.711228447    
AX        0.9516388281       -0.9876486784       -0.5361745417    
AX         1.489507635        0.2132521926         1.246362750    
AX        0.5183534491E-01     1.667799797       -0.7845779496    
AX         1.496002894        0.3440502370E-01   -0.7193329709    
AX       -0.8259013378        -1.750178132       -0.3871728248    
AX        -1.447141812       -0.2206383476        0.6749481401    
AX        0.6433726799         1.582136252        0.2413640971    
AX        -1.027139173        0.8472170079        0.4318728410    
AX        0.2362987096        -1.584479088         1.051383924    
AX        -1.494855677       -0.2002695327        -1.266915947    
AX       -0.9385600756        0.6936407720        -1.593942911    
AX       -0.7409046976        0.3317426147         1.358785733    
AX       -0.9824619824        -1.172242573        -1.297567305    
AX       -0.4138194298       -0.2975454896        -1.621608935    
AX        0.2295555741        -1.741851682       -0.6818933448E-01
AX        -1.643692701        0.3331898427       -0.3015085380    
AX        0.9191787966        0.9868761454       -0.6510397794    
AX       -0.4761877022         1.809812568        0.1979455925    
AX         1.362294315       -0.3637393843        0.2950296454    
AX       -0.6413419914        -1.145630101        0.4989004918    
AX        0.9663424615         1.159158648         1.206309361    
AX        0.9164425391       -0.6986484662         1.274348157    
AX        0.6512738267       -0.3450781077        -1.385138876    
AX        -1.221420009       -0.6964185641       -0.3044378189    
AX       -0.1719567777       -0.8441243783       -0.6085910356    
AX         1.188961218        -1.453786696        0.4668134020    
AX         1.419880538        0.7342453573        0.2619537361    
AX       -0.9535448235         1.193121563       -0.6164323023    
AX       -0.1564122669       -0.5636059730         1.291720425    
AX        0.1048144933        0.6359548421        -1.247797001    
AX       -0.9158822396E-01     1.107357512        0.9710453406    
AX        0.4713789909        0.3306284798E-03   -0.3861641252    
AX       -0.6402053993        0.1436551565       -0.6687998226    
AX       -0.5937584439E-01    0.8471970890       -0.8963229782E-01
AX       -0.4442624176       -0.7356667989E-01    0.3430794756    
AX        0.5311108966        0.2636402437        0.6620410194    
AX        0.3596595149       -0.7636907322        0.3498917393    
    38
Energy=    -169.595963474110    
AX        0.3812232420        0.3184091298         1.711228334    
AX        0.9516387845       -0.9876486634       -0.5361744920    
AX         1.489507624        0.2132521937         1.246362743    
AX        0.5183531122E-01     1.667799770       -0.7845779834    
AX         1.496002834        0.3440496144E-01   -0.7193329722    
AX       -0.8259012989        -1.750178196       -0.3871728925    
AX        -1.447141804       -0.2206383330        0.6749481047    
AX        0.6433726555         1.582136220        0.2413641421    
AX        -1.027139214        0.8472170163        0.4318728987    
AX        0.2362987145        -1.584479074         1.051383927    
AX        -1.494855667       -0.2002694903        -1.266915979    
AX       -0.9385600080        0.6936408007        -1.593942914    
AX       -0.7409045718        0.3317426237         1.358785730    
AX       -0.9824619935        -1.172242568        -1.297567331    
AX       -0.4138194505       -0.2975454810        -1.621608959    
AX        0.2295556017        -1.741851631       -0.6818928418E-01
AX        -1.643692701        0.3331898311       -0.3015085297    
AX        0.9191787811        0.9868761101       -0.6510396487    
AX       -0.4761877443         1.809812589        0.1979455411    
AX         1.362294335       -0.3637393660        0.2950296725    
AX       -0.6413419626        -1.145630091        0.4989003587    
AX        0.9663424963         1.159158679         1.206309379    
AX        0.9164424640       -0.6986484126         1.274348241    
AX        0.6512737860       -0.3450781675        -1.385138899    
AX        -1.221420102       -0.6964186047       -0.3044378725    
AX       -0.1719568352       -0.8441244168       -0.6085909556    
AX         1.188961224        -1.453786640        0.4668134532    
AX         1.419880774        0.7342454054        0.2619537695    
AX       -0.9535449041         1.193121523       -0.6164322757    
AX       -0.1564123977       -0.5636061056         1.291720477    
AX        0.1048145240        0.6359548412        -1.247796993    
AX       -0.9158821000E-01     1.107357588        0.9710453280    
AX        0.4713788991        0.3306206321E-03   -0.3861641648    
AX       -0.6402053991        0.1436551170       -0.6687998141    
AX       -0.5937590676E-01    0.8471970989       -0.8963231334E-01
AX       -0.4442624072       -0.7356662887E-01    0.3430795129    
AX        0.5311109749        0.2636404095        0.6620408753    
AX        0.3596595536       -0.7636906591        0.3498917864    
    38
Energy=    -169.595963474103    
AX        0.3812233004        0.3184089758         1.711228250    
AX        0.9516387438       -0.9876486473       -0.5361744443    
AX         1.489507649        0.2132521999         1.246362731    
AX        0.5183525422E-01     1.667799718       -0.7845780476    
AX         1.496002785        0.3440490453E-01   -0.7193330029    
AX       -0.8259012213        -1.750178270       -0.3871730146    
AX        -1.447141731       -0.2206384915        0.6749481671    
AX        0.6433726200         1.582136164        0.2413641526    
AX        -1.027139234        0.8472170563        0.4318729923    
AX        0.2362986914        -1.584479022         1.051383940    
AX        -1.494855645       -0.2002693633        -1.266915981    
AX       -0.9385599051        0.6936408872        -1.593942916    
AX       -0.7409045019        0.3317426648         1.358785774    
AX       -0.9824620628        -1.172242522        -1.297567376    
AX       -0.4138194845       -0.2975454691        -1.621609024    
AX        0.2295556391        -1.741851597       -0.6818922720E-01
AX        -1.643692653        0.3331897520       -0.3015084071    
AX        0.9191787945        0.9868760937       -0.6510395550    
AX       -0.4761877341         1.809812613        0.1979455104    
AX         1.362294340       -0.3637393379        0.2950296910    
AX       -0.6413419478        -1.145630094        0.4989002275    
AX        0.9663425218         1.159158675         1.206309379    
AX        0.9164423393       -0.6986482858         1.274348306    
AX        0.6512737203       -0.3450782743        -1.385138915    
AX        -1.221420131       -0.6964186500       -0.3044379425    
AX       -0.1719568457       -0.8441244593       -0.6085909491    
AX         1.188961193        -1.453786577        0.4668135488    
AX         1.419880993        0.7342454515        0.2619537780    
AX       -0.9535450011         1.193121461       -0.6164322185    
AX       -0.1564125669       -0.5636061970         1.291720500    
AX        0.1048145980        0.6359547836        -1.247797011    
AX       -0.9158819872E-01     1.107357647        0.9710453281    
AX        0.4713788508        0.3306120096E-03   -0.3861641939    
AX       -0.6402053682        0.1436550627       -0.6687998335    
AX       -0.5937596731E-01    0.8471971234       -0.8963233451E-01
AX       -0.4442624059       -0.7356657362E-01    0.3430795477    
AX        0.5311110423        0.2636405593        0.6620407590    
AX        0.3596595311       -0.7636905731        0.3498918100    
    38
Energy=    -169.595963474098    
AX        0.3812232893        0.3184089249         1.711228217    
AX        0.9516387261       -0.9876486421       -0.5361744186    
AX         1.489507676        0.2132522046         1.246362714    
AX        0.5183521911E-01     1.667799680       -0.7845780888    
AX         1.496002766        0.3440487350E-01   -0.7193330261    
AX       -0.8259011739        -1.750178294       -0.3871730893    
AX        -1.447141677       -0.2206386228        0.6749482192    
AX        0.6433726004         1.582136129        0.2413641547    
AX        -1.027139240        0.8472170838        0.4318730509    
AX        0.2362986805        -1.584478982         1.051383952    
AX        -1.494855638       -0.2002692739        -1.266915966    
AX       -0.9385598441        0.6936409390        -1.593942918    
AX       -0.7409044908        0.3317426905         1.358785807    
AX       -0.9824621173        -1.172242482        -1.297567408    
AX       -0.4138195028       -0.2975454582        -1.621609065    
AX        0.2295556624        -1.741851580       -0.6818919696E-01
AX        -1.643692615        0.3331896942       -0.3015083103    
AX        0.9191788131        0.9868760925       -0.6510395125    
AX       -0.4761877158         1.809812619        0.1979454925    
AX         1.362294343       -0.3637393285        0.2950296957    
AX       -0.6413419463        -1.145630095        0.4989001691    
AX        0.9663425319         1.159158664         1.206309384    
AX        0.9164422662       -0.6986481969         1.274348336    
AX        0.6512736835       -0.3450783426        -1.385138923    
AX        -1.221420128       -0.6964186690       -0.3044379829    
AX       -0.1719568345       -0.8441244781       -0.6085909670    
AX         1.188961172        -1.453786542        0.4668136068    
AX         1.419881086        0.7342454686        0.2619537707    
AX       -0.9535450537         1.193121419       -0.6164321822    
AX       -0.1564126649       -0.5636062277         1.291720509    
AX        0.1048146422        0.6359547422        -1.247797035    
AX       -0.9158819289E-01     1.107357666        0.9710453281    
AX        0.4713788410        0.3305974737E-03   -0.3861642031    
AX       -0.6402053451        0.1436550274       -0.6687998514    
AX       -0.5937598861E-01    0.8471971509       -0.8963233842E-01
AX       -0.4442624175       -0.7356654222E-01    0.3430795661    
AX        0.5311110773        0.2636406231        0.6620407106    
AX        0.3596595113       -0.7636905319        0.3498917995    
    38
Energy=    -169.595963474083    
AX        0.3812232617        0.3184088862         1.711228164    
AX        0.9516387209       -0.9876486319       -0.5361743867    
AX         1.489507694        0.2132522124         1.246362711    
AX        0.5183519899E-01     1.667799631       -0.7845781226    
AX         1.496002747        0.3440485269E-01   -0.7193330413    
AX       -0.8259011356        -1.750178320       -0.3871731690    
AX        -1.447141591       -0.2206387699        0.6749482953    
AX        0.6433725914         1.582136091        0.2413641439    
AX        -1.027139239        0.8472171120        0.4318731041    
AX        0.2362986580        -1.584478955         1.051383958    
AX        -1.494855642       -0.2002691944        -1.266915943    
AX       -0.9385597887        0.6936409765        -1.593942916    
AX       -0.7409044943        0.3317427199         1.358785842    
AX       -0.9824621758        -1.172242441        -1.297567435    
AX       -0.4138195192       -0.2975454465        -1.621609084    
AX        0.2295556783        -1.741851556       -0.6818916972E-01
AX        -1.643692581        0.3331896307       -0.3015082010    
AX        0.9191788357        0.9868760815       -0.6510394750    
AX       -0.4761876829         1.809812617        0.1979454728    
AX         1.362294346       -0.3637393023        0.2950296981    
AX       -0.6413419383        -1.145630105        0.4989001127    
AX        0.9663425396         1.159158660         1.206309392    