    38
Energy=    -172.877736411173    
AX        0.3033949497        0.1707060306         1.344017606    
AX        0.9269696904       -0.9491086349       -0.3800259833    
AX         1.384628536        0.3761825947         1.225086115    
AX        0.3057146555         1.705260666        -1.011289046    
AX         1.294037587        0.9274549913E-01   -0.5662054001    
AX       -0.8638401704        -1.677109276       -0.4199752500    
AX        -1.319357223       -0.1428052956E-01    0.4966031996    
AX        0.3962441811         1.906684113        0.9461040452E-01
AX       -0.7777740691        0.5542024551         1.329727434    
AX        0.1624038504        -1.398164855         1.205097107    
AX        -1.362069387        0.2527902936        -1.430546143    
AX       -0.5342750124        0.9837903778        -1.228186507    
AX       -0.2773705551        0.2229845613        0.4457024743    
AX        -1.117750714       -0.7160183085       -0.9287366066    
AX       -0.3085419651       -0.9959954974E-01    -1.399344415    
AX        0.1218335421        -1.564000050        0.9354899456E-01
AX        -1.865139986       -0.1873164323E-01   -0.4669947912    
AX         1.080341445         1.174224123       -0.3932246680    
AX       -0.9456056199         1.049564807        0.3047740612    
AX         1.477314071       -0.3999885807        0.4211733046    
AX       -0.8314252269        -1.521768209        0.6878771416    
AX         1.148477439         1.366471895        0.7217122767    
AX         1.017613662       -0.6718446155         1.411897231    
AX        0.7451509802       -0.4558349512        -1.363726728    
AX        -1.610134518       -0.9858664437        0.4849696856E-01
AX       -0.5945360096E-01    -1.067864878       -0.8924847624    
AX         1.106949609        -1.438956197        0.6036582550    
AX         1.839200449        0.6392130091        0.2339644282    
AX        -1.504399355         1.044659817       -0.6532215394    
AX       -0.5467755926       -0.5503333245         1.135290391    
AX        0.5250072364        0.6258145236        -1.190805148    
AX        0.6483509639E-01     1.156743159        0.8433971136    
AX        0.2279211387       -0.1107670764       -0.4479984078    
AX       -0.8060643800        0.2331191961       -0.4758016274    
AX        0.1971396053E-02    0.9577715953       -0.2724969094    
AX       -0.5614368946       -0.7091890094        0.1834059710E-01
AX        0.7586981838        0.4280669084        0.3370826059    
AX        0.4027065718       -0.5915694935        0.5190062235    
    38
Energy=    -172.877736411172    
AX        0.3033949437        0.1707060189         1.344017604    
AX        0.9269696995       -0.9491086449       -0.3800259984    
AX         1.384628526        0.3761825974         1.225086123    
AX        0.3057146576         1.705260666        -1.011289054    
AX         1.294037592        0.9274549581E-01   -0.5662053984    
AX       -0.8638401765        -1.677109280       -0.4199752375    
AX        -1.319357225       -0.1428050235E-01    0.4966031960    
AX        0.3962441764         1.906684101        0.9461040702E-01
AX       -0.7777740745        0.5542024413         1.329727442    
AX        0.1624038508        -1.398164841         1.205097101    
AX        -1.362069397        0.2527902864        -1.430546138    
AX       -0.5342750116        0.9837903745        -1.228186495    
AX       -0.2773705564        0.2229845677        0.4457024671    
AX        -1.117750709       -0.7160183131       -0.9287366033    
AX       -0.3085419664       -0.9959954692E-01    -1.399344415    
AX        0.1218335417        -1.564000060        0.9354898715E-01
AX        -1.865139991       -0.1873165576E-01   -0.4669947908    
AX         1.080341454         1.174224127       -0.3932246672    
AX       -0.9456056087         1.049564824        0.3047740493    
AX         1.477314061       -0.3999885793        0.4211733055    
AX       -0.8314252162        -1.521768212        0.6878771540    
AX         1.148477443         1.366471898        0.7217122861    
AX         1.017613658       -0.6718446176         1.411897226    
AX        0.7451509874       -0.4558349396        -1.363726735    
AX        -1.610134501       -0.9858664310        0.4849698956E-01
AX       -0.5945359788E-01    -1.067864876       -0.8924847617    
AX         1.106949604        -1.438956196        0.6036582461    
AX         1.839200446        0.6392130066        0.2339644329    
AX        -1.504399378         1.044659813       -0.6532215509    
AX       -0.5467756016       -0.5503333198         1.135290382    
AX        0.5250072465        0.6258145243        -1.190805145    
AX        0.6483509798E-01     1.156743156        0.8433971242    
AX        0.2279211447       -0.1107670765       -0.4479984111    
AX       -0.8060643859        0.2331191989       -0.4758016228    
AX        0.1971407649E-02    0.9577715889       -0.2724969106    
AX       -0.5614368925       -0.7091890095        0.1834059733E-01
AX        0.7586981820        0.4280669124        0.3370826047    
AX        0.4027065725       -0.5915694968        0.5190062107    
    38
Energy=    -172.877736411171    
AX        0.3033949372        0.1707060061         1.344017605    
AX        0.9269697123       -0.9491086527       -0.3800260171    
AX         1.384628513        0.3761826002         1.225086125    
AX        0.3057146611         1.705260660        -1.011289067    
AX         1.294037598        0.9274549381E-01   -0.5662053906    
AX       -0.8638401845        -1.677109281       -0.4199752317    
AX        -1.319357223       -0.1428047072E-01    0.4966031888    
AX        0.3962441806         1.906684091        0.9461041396E-01
AX       -0.7777740784        0.5542024364         1.329727445    
AX        0.1624038455        -1.398164828         1.205097098    
AX        -1.362069396        0.2527902846        -1.430546120    
AX       -0.5342750140        0.9837903799        -1.228186481    
AX       -0.2773705596        0.2229845816        0.4457024581    
AX        -1.117750708       -0.7160183230       -0.9287366051    
AX       -0.3085419643       -0.9959954059E-01    -1.399344412    
AX        0.1218335480        -1.564000068        0.9354897533E-01
AX        -1.865140001       -0.1873168385E-01   -0.4669947916    
AX         1.080341460         1.174224127       -0.3932246652    
AX       -0.9456055954         1.049564843        0.3047740234    
AX         1.477314056       -0.3999885792        0.4211733072    
AX       -0.8314252039        -1.521768221        0.6878771562    
AX         1.148477451         1.366471894        0.7217122873    
AX         1.017613653       -0.6718446174         1.411897225    
AX        0.7451509940       -0.4558349325        -1.363726746    
AX        -1.610134490       -0.9858664160        0.4849701331E-01
AX       -0.5945359840E-01    -1.067864866       -0.8924847588    
AX         1.106949597        -1.438956190        0.6036582369    
AX         1.839200451        0.6392130001        0.2339644409    
AX        -1.504399418         1.044659802       -0.6532215602    
AX       -0.5467756128       -0.5503333187         1.135290384    
AX        0.5250072552        0.6258145209        -1.190805140    
AX        0.6483509718E-01     1.156743152        0.8433971342    
AX        0.2279211401       -0.1107670754       -0.4479984131    
AX       -0.8060643828        0.2331191969       -0.4758016151    
AX        0.1971409364E-02    0.9577715854       -0.2724969086    
AX       -0.5614368865       -0.7091890073        0.1834059915E-01
AX        0.7586981843        0.4280669202        0.3370826070    
AX        0.4027065750       -0.5915695036        0.5190062004    
    38
Energy=    -172.877736411170    
AX        0.3033949177        0.1707059802         1.344017605    
AX        0.9269697308       -0.9491086499       -0.3800260370    
AX         1.384628494        0.3761826067         1.225086130    
AX        0.3057146726         1.705260635        -1.011289080    
AX         1.294037600        0.9274549190E-01   -0.5662053783    
AX       -0.8638401955        -1.677109266       -0.4199752362    
AX        -1.319357229       -0.1428041577E-01    0.4966031807    
AX        0.3962441841         1.906684082        0.9461041878E-01
AX       -0.7777740834        0.5542024558         1.329727431    
AX        0.1624038388        -1.398164819         1.205097093    
AX        -1.362069380        0.2527902785        -1.430546099    
AX       -0.5342750249        0.9837903926        -1.228186452    
AX       -0.2773705553        0.2229845702        0.4457024826    
AX        -1.117750712       -0.7160183287       -0.9287366001    
AX       -0.3085419582       -0.9959952750E-01    -1.399344405    
AX        0.1218335627        -1.564000066        0.9354895006E-01
AX        -1.865140013       -0.1873172779E-01   -0.4669947956    
AX         1.080341467         1.174224122       -0.3932246601    
AX       -0.9456055814         1.049564875        0.3047739794    
AX         1.477314060       -0.3999885779        0.4211733121    
AX       -0.8314251785        -1.521768252        0.6878771374    
AX         1.148477460         1.366471893        0.7217122787    
AX         1.017613655       -0.6718446206         1.411897221    
AX        0.7451509990       -0.4558349363        -1.363726758    
AX        -1.610134482       -0.9858663943        0.4849707143E-01
AX       -0.5945360155E-01    -1.067864848       -0.8924847577    
AX         1.106949598        -1.438956186        0.6036582239    
AX         1.839200465        0.6392129908        0.2339644561    
AX        -1.504399485         1.044659765       -0.6532215616    
AX       -0.5467756396       -0.5503333171         1.135290371    
AX        0.5250072654        0.6258145109        -1.190805136    
AX        0.6483510264E-01     1.156743150        0.8433971497    
AX        0.2279211435       -0.1107670783       -0.4479984114    
AX       -0.8060643946        0.2331191975       -0.4758016196    
AX        0.1971423095E-02    0.9577715933       -0.2724969152    
AX       -0.5614368822       -0.7091890018        0.1834060940E-01
AX        0.7586981883        0.4280669187        0.3370826147    
AX        0.4027065695       -0.5915694960        0.5190061870    
    38
Energy=    -172.877736411167    
AX        0.3033948887        0.1707059379         1.344017619    
AX        0.9269697484       -0.9491086296       -0.3800260364    
AX         1.384628468        0.3761826195         1.225086145    
AX        0.3057146991         1.705260600        -1.011289090    
AX         1.294037604        0.9274549678E-01   -0.5662053653    
AX       -0.8638402073        -1.677109233       -0.4199752676    
AX        -1.319357254       -0.1428034804E-01    0.4966031684    
AX        0.3962441853         1.906684090        0.9461041014E-01
AX       -0.7777740947        0.5542025325         1.329727396    
AX        0.1624038400        -1.398164820         1.205097078    
AX        -1.362069358        0.2527902718        -1.430546095    
AX       -0.5342750498        0.9837904161        -1.228186415    
AX       -0.2773705390        0.2229845643        0.4457024772    
AX        -1.117750732       -0.7160183238       -0.9287365801    
AX       -0.3085419525       -0.9959951264E-01    -1.399344387    
AX        0.1218335905        -1.564000044        0.9354891348E-01
AX        -1.865140033       -0.1873177504E-01   -0.4669948029    
AX         1.080341477         1.174224106       -0.3932246516    
AX       -0.9456055516         1.049564915        0.3047739223    
AX         1.477314084       -0.3999885769        0.4211733254    
AX       -0.8314251351        -1.521768324        0.6878770882    
AX         1.148477471         1.366471900        0.7217122495    
AX         1.017613675       -0.6718446311         1.411897215    
AX        0.7451509940       -0.4558349576        -1.363726759    
AX        -1.610134485       -0.9858663796        0.4849716262E-01
AX       -0.5945361292E-01    -1.067864826       -0.8924847628    
AX         1.106949613        -1.438956186        0.6036582100    
AX         1.839200485        0.6392129826        0.2339644825    
AX        -1.504399568         1.044659706       -0.6532215411    
AX       -0.5467756954       -0.5503333402         1.135290347    
AX        0.5250072649        0.6258144935        -1.190805140    
AX        0.6483512878E-01     1.156743145        0.8433971535    
AX        0.2279211200       -0.1107670752       -0.4479983973    
AX       -0.8060643846        0.2331191901       -0.4758016096    
AX        0.1971440081E-02    0.9577715808       -0.2724969094    
AX       -0.5614368822       -0.7091889850        0.1834061672E-01
AX        0.7586981906        0.4280669126        0.3370826357    
AX        0.4027065693       -0.5915694930        0.5190061959    
    38
Energy=    -172.877736411164    
AX        0.3033948530        0.1707058933         1.344017642    
AX        0.9269697537       -0.9491085951       -0.3800260131    
AX         1.384628436        0.3761826395         1.225086172    
AX        0.3057147295         1.705260567        -1.011289093    
AX         1.294037597        0.9274550124E-01   -0.5662053573    
AX       -0.8638402095        -1.677109199       -0.4199753124    
AX        -1.319357278       -0.1428028959E-01    0.4966031578    
AX        0.3962441815         1.906684105        0.9461038357E-01
AX       -0.7777741022        0.5542026241         1.329727339    
AX        0.1624038492        -1.398164831         1.205097062    
AX        -1.362069346        0.2527902685        -1.430546110    
AX       -0.5342750809        0.9837904377        -1.228186379    
AX       -0.2773705635        0.2229845747        0.4457024981    
AX        -1.117750756       -0.7160183060       -0.9287365530    
AX       -0.3085419559       -0.9959950073E-01    -1.399344371    
AX        0.1218336171        -1.564000011        0.9354888080E-01
AX        -1.865140050       -0.1873180114E-01   -0.4669948114    
AX         1.080341490         1.174224086       -0.3932246473    
AX       -0.9456055070         1.049564943        0.3047738882    
AX         1.477314111       -0.3999885726        0.4211733460    
AX       -0.8314250871        -1.521768405        0.6878770273    
AX         1.148477485         1.366471920        0.7217122091    
AX         1.017613703       -0.6718446433         1.411897212    
AX        0.7451509799       -0.4558349821        -1.363726744    
AX        -1.610134489       -0.9858663818        0.4849724664E-01
AX       -0.5945362255E-01    -1.067864813       -0.8924847742    
AX         1.106949639        -1.438956190        0.6036582057    
AX         1.839200497        0.6392129768        0.2339645082    
AX        -1.504399624         1.044659648       -0.6532214996    
AX       -0.5467757620       -0.5503333701         1.135290304    
AX        0.5250072536        0.6258144746        -1.190805150    
AX        0.6483517006E-01     1.156743134        0.8433971455    
AX        0.2279211228       -0.1107670804       -0.4479983952    
AX       -0.8060643936        0.2331191937       -0.4758016043    
AX        0.1971467352E-02    0.9577715699       -0.2724969064    
AX       -0.5614368959       -0.7091889878        0.1834062196E-01
AX        0.7586982101        0.4280669016        0.3370826535    
AX        0.4027065801       -0.5915694998        0.5190062177    
    38
Energy=    -172.877736411160    
AX        0.3033948269        0.1707058609         1.344017658    
AX        0.9269697517       -0.9491085693       -0.3800259778    
AX         1.384628416        0.3761826608         1.225086206    
AX        0.3057147498         1.705260552        -1.011289088    
AX         1.294037592        0.9274550228E-01   -0.5662053645    
AX       -0.8638402015        -1.677109178       -0.4199753472    
AX        -1.319357307       -0.1428026435E-01    0.4966031568    
AX        0.3962441639         1.906684119        0.9461034900E-01
AX       -0.7777741159        0.5542026931         1.329727306    
AX        0.1624038658        -1.398164846         1.205097047    
AX        -1.362069359        0.2527902614        -1.430546150    
AX       -0.5342750997        0.9837904418        -1.228186358    
AX       -0.2773705594        0.2229845667        0.4457024862    
AX        -1.117750773       -0.7160182773       -0.9287365251    
AX       -0.3085419680       -0.9959949748E-01    -1.399344365    
AX        0.1218336276        -1.563999986        0.9354886556E-01
AX        -1.865140055       -0.1873178691E-01   -0.4669948145    
AX         1.080341504         1.174224076       -0.3932246498    
AX       -0.9456054786         1.049564959        0.3047738994    
AX         1.477314125       -0.3999885654        0.4211733658    
AX       -0.8314250533        -1.521768463        0.6878769901    
AX         1.148477493         1.366471952        0.7217121822    
AX         1.017613728       -0.6718446553         1.411897208    
AX        0.7451509677       -0.4558350005        -1.363726725    
AX        -1.610134490       -0.9858663946        0.4849729847E-01
AX       -0.5945362370E-01    -1.067864817       -0.8924847873    
AX         1.106949669        -1.438956200        0.6036582107    
AX         1.839200491        0.6392129787        0.2339645189    
AX        -1.504399631         1.044659621       -0.6532214619    
AX       -0.5467758133       -0.5503333972         1.135290252    
AX        0.5250072432        0.6258144650        -1.190805161    
AX        0.6483521388E-01     1.156743127        0.8433971326    
AX        0.2279211284       -0.1107670843       -0.4479983771    
AX       -0.8060644033        0.2331192060       -0.4758015943    
AX        0.1971500872E-02    0.9577715421       -0.2724968977    
AX       -0.5614369100       -0.7091889856        0.1834061914E-01
AX        0.7586982070        0.4280668801        0.3370826619    
AX        0.4027065788       -0.5915694941        0.5190062320    
    38
Energy=    -172.877736411156    
AX        0.3033948190        0.1707058444         1.344017668    
AX        0.9269697494       -0.9491085544       -0.3800259567    
AX         1.384628410        0.3761826744         1.225086225    
AX        0.3057147567         1.705260540        -1.011289086    
AX         1.294037582        0.9274549867E-01   -0.5662053717    
AX       -0.8638401916        -1.677109161       -0.4199753585    
AX        -1.319357318       -0.1428025331E-01    0.4966031612    
AX        0.3962441468         1.906684123        0.9461032847E-01
AX       -0.7777741228        0.5542027193         1.329727292    
AX        0.1624038763        -1.398164856         1.205097038    
AX        -1.362069368        0.2527902524        -1.430546180    
AX       -0.5342751070        0.9837904372        -1.228186349    
AX       -0.2773705784        0.2229845780        0.4457024764    
AX        -1.117750777       -0.7160182579       -0.9287365074    
AX       -0.3085419721       -0.9959949478E-01    -1.399344369    
AX        0.1218336289        -1.563999971        0.9354886211E-01
AX        -1.865140050       -0.1873176675E-01   -0.4669948145    
AX         1.080341513         1.174224073       -0.3932246521    
AX       -0.9456054679         1.049564956        0.3047739229    
AX         1.477314124       -0.3999885602        0.4211733770    
AX       -0.8314250388        -1.521768483        0.6878769708    
AX         1.148477493         1.366471975        0.7217121713    
AX         1.017613735       -0.6718446611         1.411897199    
AX        0.7451509607       -0.4558350114        -1.363726716    
AX        -1.610134487       -0.9858663992        0.4849732569E-01
AX       -0.5945362028E-01    -1.067864825       -0.8924847959    
AX         1.106949685        -1.438956205        0.6036582174    
AX         1.839200483        0.6392129837        0.2339645181    
AX        -1.504399619         1.044659610       -0.6532214428    
AX       -0.5467758395       -0.5503334118         1.135290218    
AX        0.5250072432        0.6258144589        -1.190805165    
AX        0.6483523351E-01     1.156743123        0.8433971306    
AX        0.2279211568       -0.1107670841       -0.4479983725    
AX       -0.8060644201        0.2331192240       -0.4758015828    
AX        0.1971523101E-02    0.9577715210       -0.2724968877    
AX       -0.5614369355       -0.7091889969        0.1834061429E-01
AX        0.7586982040        0.4280668625        0.3370826568    
AX        0.4027065896       -0.5915694998        0.5190062362    
    38
Energy=    -172.877736411114    
AX        0.3033948465        0.1707058443         1.344017734    
AX        0.9269697405       -0.9491085266       -0.3800259539    
AX         1.384628424        0.3761826463         1.225086218    
AX        0.3057147915         1.705260548        -1.011289105    
AX         1.294037546        0.9274550432E-01   -0.5662053396    
AX       -0.8638402315        -1.677109134       -0.4199753593    
AX        -1.319357280       -0.1428024144E-01    0.4966031292    
AX        0.3962441442         1.906684135        0.9461033228E-01
AX       -0.7777741150        0.5542027461         1.329727316    
AX        0.1624038679        -1.398164887         1.205097046    
AX        -1.362069336        0.2527902778        -1.430546148    
AX       -0.5342751124        0.9837904463        -1.228186355    
AX       -0.2773705516        0.2229845597        0.4457024176    
AX        -1.117750803       -0.7160182927       -0.9287365290    
AX       -0.3085419743       -0.9959950213E-01    -1.399344414    
AX        0.1218336161        -1.563999989        0.9354881935E-01
AX        -1.865140030       -0.1873179966E-01   -0.4669948213    
AX         1.080341476         1.174224077       -0.3932246752    
AX       -0.9456054805         1.049564975        0.3047738894    
AX         1.477314139       -0.3999885717        0.4211733748    
AX       -0.8314250346        -1.521768483        0.6878769100    
AX         1.148477495         1.366471989        0.7217121692    
AX         1.017613761       -0.6718446481         1.411897208    
AX        0.7451509857       -0.4558350101        -1.363726689    
AX        -1.610134450       -0.9858663804        0.4849732158E-01
AX       -0.5945367140E-01    -1.067864846       -0.8924848010    
AX         1.106949677        -1.438956194        0.6036582240    
AX         1.839200524        0.6392130055        0.2339645118    
AX        -1.504399612         1.044659575       -0.6532214484    
AX       -0.5467758537       -0.5503334316         1.135290279    
AX        0.5250072165        0.6258144587        -1.190805150    
AX        0.6483521489E-01     1.156743157        0.8433971354    
AX        0.2279212836       -0.1107669983       -0.4479982794    
AX       -0.8060644500        0.2331192466       -0.4758015623    
AX        0.1971506280E-02    0.9577715070       -0.2724968910    
AX       -0.5614370235       -0.7091890861        0.1834065403E-01
AX        0.7586981011        0.4280667373        0.3370825922    
AX        0.4027066527       -0.5915694146        0.5190062383    
    38
Energy=    -172.877736411103    
AX        0.3033945766        0.1707056245         1.344017784    
AX        0.9269696884       -0.9491084912       -0.3800258045    
AX         1.384628101        0.3761828728         1.225086452    
AX        0.3057147784         1.705260648        -1.011289178    
AX         1.294037547        0.9274552787E-01   -0.5662053209    
AX       -0.8638401107        -1.677109386       -0.4199755511    
AX        -1.319357311       -0.1428027760E-01    0.4966030088    
AX        0.3962441924         1.906684173        0.9461011343E-01
AX       -0.7777741586        0.5542029378         1.329727107    
AX        0.1624039730        -1.398164883         1.205097077    
AX        -1.362069669        0.2527904416        -1.430546118    
AX       -0.5342751602        0.9837904727        -1.228186312    
AX       -0.2773705538        0.2229844920        0.4457024595    
AX        -1.117750932       -0.7160182267       -0.9287364953    
AX       -0.3085422262       -0.9959954395E-01    -1.399344339    
AX        0.1218337218        -1.564000057        0.9354885860E-01
AX        -1.865140179       -0.1873164512E-01   -0.4669947966    
AX         1.080341550         1.174224028       -0.3932247374    
AX       -0.9456051021         1.049565175        0.3047739617    
AX         1.477314138       -0.3999884955        0.4211735601    
AX       -0.8314248351        -1.521768859        0.6878768797    
AX         1.148477702         1.366472166        0.7217119641    
AX         1.017613925       -0.6718446789         1.411897371    
AX        0.7451508479       -0.4558349169        -1.363726581    
AX        -1.610134385       -0.9858665809        0.4849716926E-01
AX       -0.5945366771E-01    -1.067864836       -0.8924848234    
AX         1.106949791        -1.438956197        0.6036583010    
AX         1.839200423        0.6392129570        0.2339646540    
AX        -1.504399464         1.044659835       -0.6532212653    
AX       -0.5467760520       -0.5503335506         1.135290047    
AX        0.5250070840        0.6258144492        -1.190805236    
AX        0.6483559379E-01     1.156743031        0.8433969514    
AX        0.2279210789       -0.1107671706       -0.4479983341    
AX       -0.8060644973        0.2331192131       -0.4758015458    
AX        0.1971644594E-02    0.9577714712       -0.2724969293    
AX       -0.5614368311       -0.7091890803        0.1834057440E-01
AX        0.7586982368        0.4280669024        0.3370827151    
AX        0.4027065437       -0.5915695409        0.5190063579    
    38
Energy=    -172.877736410997    
AX        0.3033943536        0.1707054986         1.344017973    
AX        0.9269696589       -0.9491084607       -0.3800257396    
AX         1.384627749        0.3761830328         1.225086539    
AX        0.3057148474         1.705260757        -1.011289360    
AX         1.294037527        0.9274553020E-01   -0.5662051757    
AX       -0.8638400395        -1.677109631       -0.4199757665    
AX        -1.319357179       -0.1428032393E-01    0.4966027452    
AX        0.3962444473         1.906684197        0.9460996041E-01
AX       -0.7777741293        0.5542030331         1.329726990    
AX        0.1624039231        -1.398164845         1.205097198    
AX        -1.362069874        0.2527907902        -1.430545749    
AX       -0.5342753094        0.9837906421        -1.228186200    
AX       -0.2773705252        0.2229844439        0.4457024922    
AX        -1.117751037       -0.7160183519       -0.9287366681    
AX       -0.3085424397       -0.9959951571E-01    -1.399344316    
AX        0.1218338502        -1.564000211        0.9354880926E-01
AX        -1.865140338       -0.1873185412E-01   -0.4669948050    
AX         1.080341539         1.174223924       -0.3932249280    
AX       -0.9456047492         1.049565470        0.3047738745    
AX         1.477314150       -0.3999884809        0.4211737650    
AX       -0.8314247038        -1.521769154        0.6878766825    
AX         1.148478026         1.366472238        0.7217116490    
AX         1.017613989       -0.6718445823         1.411897655    
AX        0.7451507934       -0.4558347740        -1.363726489    
AX        -1.610134200       -0.9858667582        0.4849682605E-01
AX       -0.5945375635E-01    -1.067864786       -0.8924848398    
AX         1.106949738        -1.438956086        0.6036584720    
AX         1.839200514        0.6392128400        0.2339647652    
AX        -1.504399561         1.044659956       -0.6532209582    
AX       -0.5467762252       -0.5503336528         1.135290129    
AX        0.5250068496        0.6258144571        -1.190805285    
AX        0.6483589109E-01     1.156742986        0.8433968203    
AX        0.2279210079       -0.1107671257       -0.4479983121    
AX       -0.8060645191        0.2331191313       -0.4758015230    
AX        0.1971625888E-02    0.9577715387       -0.2724970386    
AX       -0.5614367317       -0.7091892604        0.1834056306E-01
AX        0.7586982444        0.4280669150        0.3370827168    
AX        0.4027065946       -0.5915695268        0.5190065309    
    38
Energy=    -172.877736410930    
AX        0.3033943386        0.1707055373         1.344018041    
AX        0.9269696429       -0.9491084541       -0.3800257443    
AX         1.384627723        0.3761829720         1.225086496    
AX        0.3057149169         1.705260830        -1.011289375    
AX         1.294037561        0.9274556976E-01   -0.5662051254    
AX       -0.8638401292        -1.677109684       -0.4199758229    
AX        -1.319357128       -0.1428031648E-01    0.4966026710    
AX        0.3962445209         1.906684232        0.9460997564E-01
AX       -0.7777740959        0.5542031018         1.329726974    
AX        0.1624039036        -1.398164839         1.205097189    
AX        -1.362069845        0.2527908716        -1.430545656    
AX       -0.5342753359        0.9837907121        -1.228186180    
AX       -0.2773705085        0.2229844570        0.4457025693    
AX        -1.117751090       -0.7160184246       -0.9287367308    
AX       -0.3085424560       -0.9959954138E-01    -1.399344297    
AX        0.1218338541        -1.564000236        0.9354874846E-01
AX        -1.865140374       -0.1873199600E-01   -0.4669948329    
AX         1.080341484         1.174223892       -0.3932249438    
AX       -0.9456047011         1.049565542        0.3047737380    
AX         1.477314219       -0.3999885090        0.4211737552    
AX       -0.8314246938        -1.521769218        0.6878766460    
AX         1.148478063         1.366472164        0.7217116191    