    38
Energy=    -170.956696805726    
AX        0.3558913528        0.1517830294         1.355175552    
AX        0.9270038025       -0.9695064583       -0.3881186989    
AX         1.427501662        0.3303763486         1.222339329    
AX       -0.2930364729         1.870265789       -0.7386716368    
AX         1.300557798        0.6657236627E-01   -0.5581572697    
AX       -0.8406598472        -1.702720511       -0.4322556452    
AX        -1.314181139       -0.3061013374        0.6795267773    
AX        0.4237235073         1.884199064        0.1272329341    
AX        -1.277625321        0.7363932890        0.3888546893    
AX        0.2096787851        -1.490184372         1.184027624    
AX        -1.400099961        0.3138733901        -1.325587203    
AX       -0.4704996330        0.9391080767        -1.289676602    
AX       -0.3245990010        0.2120522811        0.5086943892    
AX        -1.128735549       -0.7062753060       -0.9164259574    
AX       -0.3139327934       -0.1280126261        -1.393497264    
AX        0.1263864700        -1.581729690        0.8354367081E-01
AX        -1.793695848       -0.1750617062E-01   -0.2962835530    
AX         1.085920714         1.150844486       -0.3710610317    
AX       -0.6613303137         1.632589766        0.2757636714    
AX         1.479529753       -0.4312898722        0.4160823037    
AX       -0.8251159788        -1.504297259        0.6960402304    
AX         1.186114014         1.328261149        0.7381889190    
AX         1.027202248       -0.7216624019         1.401872988    
AX        0.7440803489       -0.4690917403        -1.361313606    
AX        -1.630342008        -1.087709035       -0.8189815590E-03
AX       -0.6028722197E-01    -1.078868629       -0.8946528943    
AX         1.128144515        -1.470161059        0.5741945375    
AX         1.852408101        0.6025574884        0.2306158915    
AX        -1.241080909         1.217325114       -0.5887633085    
AX       -0.4298476613       -0.6125804377         1.225579262    
AX        0.5512888614        0.6065967882        -1.169672677    
AX        0.1127610858         1.129260888        0.8745604423    
AX        0.2326200291       -0.1273670075       -0.4314563472    
AX       -0.7710322263        0.2362881085       -0.4627970218    
AX        0.8866950824E-02    0.9365379767       -0.2509634182    
AX       -0.5617338548       -0.7207243454        0.1492335782E-01
AX        0.7565027928        0.3981882843        0.3521393595    
AX        0.4016529488       -0.6172854260        0.5208171888    
    38
Energy=    -170.956696805721    
AX        0.3558913502        0.1517830505         1.355175578    
AX        0.9270038063       -0.9695064551       -0.3881186896    
AX         1.427501641        0.3303763545         1.222339328    
AX       -0.2930365396         1.870265804       -0.7386716207    
AX         1.300557793        0.6657234962E-01   -0.5581572706    
AX       -0.8406598256        -1.702720510       -0.4322556742    
AX        -1.314181126       -0.3061013289        0.6795267694    
AX        0.4237235161         1.884199051        0.1272328959    
AX        -1.277625300        0.7363932949        0.3888547308    
AX        0.2096787553        -1.490184400         1.184027625    
AX        -1.400099962        0.3138733749        -1.325587201    
AX       -0.4704996514        0.9391080931        -1.289676590    
AX       -0.3245990370        0.2120522654        0.5086943590    
AX        -1.128735530       -0.7062752992       -0.9164259665    
AX       -0.3139327814       -0.1280126107        -1.393497280    
AX        0.1263864821        -1.581729694        0.8354366365E-01
AX        -1.793695832       -0.1750613551E-01   -0.2962835471    
AX         1.085920720         1.150844461       -0.3710610583    
AX       -0.6613302973         1.632589778        0.2757636902    
AX         1.479529745       -0.4312898715        0.4160823189    
AX       -0.8251159742        -1.504297280        0.6960402099    
AX         1.186114037         1.328261163        0.7381888723    
AX         1.027202199       -0.7216623977         1.401873029    
AX        0.7440803584       -0.4690917459        -1.361313599    
AX        -1.630341985        -1.087709024       -0.8190066176E-03
AX       -0.6028720178E-01    -1.078868632       -0.8946529060    
AX         1.128144509        -1.470161054        0.5741945658    
AX         1.852408092        0.6025574573        0.2306158851    
AX        -1.241080934         1.217325085       -0.5887632734    
AX       -0.4298476717       -0.6125804454         1.225579267    
AX        0.5512888499        0.6065967948        -1.169672700    
AX        0.1127611100         1.129260916        0.8745604409    
AX        0.2326200801       -0.1273670412       -0.4314563109    
AX       -0.7710322482        0.2362881254       -0.4627969755    
AX        0.8866940074E-02    0.9365380006       -0.2509634256    
AX       -0.5617338246       -0.7207243458        0.1492337682E-01
AX        0.7565028004        0.3981882617        0.3521393352    
AX        0.4016529386       -0.6172854109        0.5208171524    
    38
Energy=    -170.956696805725    
AX        0.3558913829        0.1517829978         1.355175531    
AX        0.9270037999       -0.9695064499       -0.3881187116    
AX         1.427501697        0.3303763295         1.222339340    
AX       -0.2930364233         1.870265782       -0.7386716622    
AX         1.300557811        0.6657238314E-01   -0.5581572634    
AX       -0.8406598884        -1.702720517       -0.4322556193    
AX        -1.314181146       -0.3061013495        0.6795267791    
AX        0.4237234789         1.884199071        0.1272329670    
AX        -1.277625340        0.7363932816        0.3888546461    
AX        0.2096788098        -1.490184341         1.184027620    
AX        -1.400099956        0.3138734090        -1.325587223    
AX       -0.4704995913        0.9391080561        -1.289676616    
AX       -0.3245989955        0.2120522753        0.5086943885    
AX        -1.128735579       -0.7062753162       -0.9164259477    
AX       -0.3139328129       -0.1280126534        -1.393497259    
AX        0.1263864408        -1.581729669        0.8354367749E-01
AX        -1.793695844       -0.1750622058E-01   -0.2962835586    
AX         1.085920713         1.150844525       -0.3710609997    
AX       -0.6613303305         1.632589761        0.2757636533    
AX         1.479529776       -0.4312898776        0.4160822836    
AX       -0.8251159817        -1.504297234        0.6960402632    
AX         1.186113994         1.328261166        0.7381889725    
AX         1.027202307       -0.7216624242         1.401872947    
AX        0.7440803227       -0.4690917323        -1.361313605    
AX        -1.630342053        -1.087709068       -0.8189495002E-03
AX       -0.6028724368E-01    -1.078868638       -0.8946528724    
AX         1.128144512        -1.470161074        0.5741944900    
AX         1.852408094        0.6025575267        0.2306159186    
AX        -1.241080881         1.217325132       -0.5887633542    
AX       -0.4298476584       -0.6125804213         1.225579279    
AX        0.5512888973        0.6065967999        -1.169672655    
AX        0.1127610712         1.129260862        0.8745604424    
AX        0.2326200124       -0.1273669884       -0.4314563460    
AX       -0.7710322180        0.2362881065       -0.4627970435    
AX        0.8866953859E-02    0.9365379669       -0.2509634124    
AX       -0.5617338824       -0.7207243313        0.1492335039E-01
AX        0.7565027993        0.3981882885        0.3521393637    
AX        0.4016529528       -0.6172854133        0.5208171870    
    38
Energy=    -170.956696805722    
AX        0.3558914190        0.1517829593         1.355175509    
AX        0.9270038088       -0.9695064464       -0.3881187374    
AX         1.427501732        0.3303763025         1.222339358    
AX       -0.2930362760         1.870265758       -0.7386717041    
AX         1.300557818        0.6657241458E-01   -0.5581572557    
AX       -0.8406599218        -1.702720530       -0.4322555950    
AX        -1.314181175       -0.3061013376        0.6795267826    
AX        0.4237234670         1.884199083        0.1272330398    
AX        -1.277625359        0.7363933000        0.3888545768    
AX        0.2096788738        -1.490184314         1.184027640    
AX        -1.400099980        0.3138734397        -1.325587229    
AX       -0.4704995538        0.9391080317        -1.289676641    
AX       -0.3245990280        0.2120522515        0.5086943819    
AX        -1.128735645       -0.7062753357       -0.9164259433    
AX       -0.3139328553       -0.1280126924        -1.393497257    
AX        0.1263864191        -1.581729638        0.8354370245E-01
AX        -1.793695840       -0.1750627384E-01   -0.2962835775    
AX         1.085920682         1.150844562       -0.3710609542    
AX       -0.6613303234         1.632589791        0.2757636063    
AX         1.479529817       -0.4312898652        0.4160822483    
AX       -0.8251159801        -1.504297225        0.6960403016    
AX         1.186113959         1.328261177        0.7381890377    
AX         1.027202383       -0.7216624478         1.401872900    
AX        0.7440802871       -0.4690917158        -1.361313578    
AX        -1.630342097        -1.087709113       -0.8189008714E-03
AX       -0.6028727324E-01    -1.078868664       -0.8946528614    
AX         1.128144545        -1.470161065        0.5741944272    
AX         1.852408062        0.6025575797        0.2306159590    
AX        -1.241080833         1.217325174       -0.5887634163    
AX       -0.4298476584       -0.6125804232         1.225579277    
AX        0.5512889201        0.6065968214        -1.169672632    
AX        0.1127610361         1.129260828        0.8745604434    
AX        0.2326200053       -0.1273670005       -0.4314563390    
AX       -0.7710322277        0.2362881091       -0.4627970630    
AX        0.8866946603E-02    0.9365379562       -0.2509633889    
AX       -0.5617339202       -0.7207243290        0.1492334443E-01
AX        0.7565028039        0.3981882806        0.3521393715    
AX        0.4016529624       -0.6172854050        0.5208171673    
    38
Energy=    -170.956696805718    
AX        0.3558914248        0.1517829380         1.355175497    
AX        0.9270038108       -0.9695064496       -0.3881187580    
AX         1.427501736        0.3303762987         1.222339367    
AX       -0.2930361383         1.870265725       -0.7386717299    
AX         1.300557814        0.6657244111E-01   -0.5581572448    
AX       -0.8406599257        -1.702720535       -0.4322555754    
AX        -1.314181208       -0.3061013104        0.6795267964    
AX        0.4237234844         1.884199110        0.1272330998    
AX        -1.277625358        0.7363933187        0.3888545152    
AX        0.2096789380        -1.490184306         1.184027667    
AX        -1.400100011        0.3138734636        -1.325587211    
AX       -0.4704995448        0.9391080168        -1.289676659    
AX       -0.3245990510        0.2120522348        0.5086943808    
AX        -1.128735708       -0.7062753545       -0.9164259423    
AX       -0.3139328885       -0.1280127158        -1.393497252    
AX        0.1263864260        -1.581729639        0.8354372304E-01
AX        -1.793695854       -0.1750629398E-01   -0.2962835950    
AX         1.085920648         1.150844574       -0.3710609173    
AX       -0.6613303072         1.632589826        0.2757635587    
AX         1.479529835       -0.4312898390        0.4160822265    
AX       -0.8251159841        -1.504297236        0.6960403152    
AX         1.186113922         1.328261158        0.7381890800    
AX         1.027202437       -0.7216624528         1.401872869    
AX        0.7440802805       -0.4690917044        -1.361313555    
AX        -1.630342108        -1.087709124       -0.8188570012E-03
AX       -0.6028729933E-01    -1.078868673       -0.8946528728    
AX         1.128144595        -1.470161042        0.5741943890    
AX         1.852408049        0.6025576167        0.2306159778    
AX        -1.241080788         1.217325222       -0.5887634538    
AX       -0.4298476552       -0.6125804465         1.225579235    
AX        0.5512889150        0.6065968219        -1.169672615    
AX        0.1127609903         1.129260816        0.8745604403    
AX        0.2326199940       -0.1273670212       -0.4314563460    
AX       -0.7710322400        0.2362881008       -0.4627970784    
AX        0.8866944619E-02    0.9365379455       -0.2509633654    
AX       -0.5617339447       -0.7207243351        0.1492334086E-01
AX        0.7565027948        0.3981882770        0.3521393894    
AX        0.4016529750       -0.6172854247        0.5208171611    
    38
Energy=    -170.956696805715    
AX        0.3558914231        0.1517829197         1.355175492    
AX        0.9270038132       -0.9695064496       -0.3881187779    
AX         1.427501728        0.3303762926         1.222339367    
AX       -0.2930360274         1.870265691       -0.7386717514    
AX         1.300557805        0.6657246048E-01   -0.5581572393    
AX       -0.8406599094        -1.702720543       -0.4322555703    
AX        -1.314181233       -0.3061012699        0.6795268055    
AX        0.4237235041         1.884199130        0.1272331403    
AX        -1.277625345        0.7363933451        0.3888544823    
AX        0.2096789799        -1.490184306         1.184027693    
AX        -1.400100026        0.3138734762        -1.325587186    
AX       -0.4704995482        0.9391080107        -1.289676681    
AX       -0.3245990760        0.2120522266        0.5086943855    
AX        -1.128735756       -0.7062753735       -0.9164259406    
AX       -0.3139329186       -0.1280127296        -1.393497244    
AX        0.1263864422        -1.581729638        0.8354373689E-01
AX        -1.793695861       -0.1750629476E-01   -0.2962836063    
AX         1.085920618         1.150844578       -0.3710608991    
AX       -0.6613302843         1.632589863        0.2757635183    
AX         1.479529836       -0.4312898144        0.4160822150    
AX       -0.8251159788        -1.504297256        0.6960403136    
AX         1.186113886         1.328261133        0.7381891021    
AX         1.027202462       -0.7216624647         1.401872862    
AX        0.7440802728       -0.4690916888        -1.361313543    
AX        -1.630342090        -1.087709128       -0.8188191116E-03
AX       -0.6028731394E-01    -1.078868673       -0.8946528909    
AX         1.128144631        -1.470161020        0.5741943706    
AX         1.852408034        0.6025576437        0.2306159852    
AX        -1.241080745         1.217325250       -0.5887634720    
AX       -0.4298476609       -0.6125804712         1.225579191    
AX        0.5512888956        0.6065968165        -1.169672602    
AX        0.1127609488         1.129260815        0.8745604416    
AX        0.2326199979       -0.1273670528       -0.4314563609    
AX       -0.7710322655        0.2362880938       -0.4627970825    
AX        0.8866942198E-02    0.9365379464       -0.2509633467    
AX       -0.5617339593       -0.7207243522        0.1492334383E-01
AX        0.7565027930        0.3981882842        0.3521394046    
AX        0.4016529865       -0.6172854515        0.5208171627    
    38
Energy=    -170.956696805703    
AX        0.3558914257        0.1517829081         1.355175491    
AX        0.9270038180       -0.9695064464       -0.3881187951    
AX         1.427501718        0.3303762834         1.222339361    
AX       -0.2930359933         1.870265672       -0.7386717569    
AX         1.300557797        0.6657246474E-01   -0.5581572434    
AX       -0.8406598901        -1.702720548       -0.4322555799    
AX        -1.314181243       -0.3061012404        0.6795268069    
AX        0.4237235101         1.884199132        0.1272331470    
AX        -1.277625337        0.7363933635        0.3888544851    
AX        0.2096789882        -1.490184305         1.184027707    
AX        -1.400100012        0.3138734790        -1.325587162    
AX       -0.4704995532        0.9391080165        -1.289676694    
AX       -0.3245991007        0.2120522357        0.5086944119    
AX        -1.128735779       -0.7062753818       -0.9164259400    
AX       -0.3139329352       -0.1280127352        -1.393497233    
AX        0.1263864528        -1.581729622        0.8354374693E-01
AX        -1.793695841       -0.1750628087E-01   -0.2962836142    
AX         1.085920604         1.150844577       -0.3710609003    
AX       -0.6613302647         1.632589879        0.2757635015    
AX         1.479529832       -0.4312898044        0.4160822168    
AX       -0.8251159724        -1.504297262        0.6960403039    
AX         1.186113865         1.328261120        0.7381890938    
AX         1.027202451       -0.7216624859         1.401872871    
AX        0.7440802569       -0.4690916725        -1.361313534    
AX        -1.630342060        -1.087709130       -0.8188015456E-03
AX       -0.6028731246E-01    -1.078868668       -0.8946529083    
AX         1.128144635        -1.470161002        0.5741943698    
AX         1.852408015        0.6025576565        0.2306159893    
AX        -1.241080723         1.217325240       -0.5887634727    
AX       -0.4298476672       -0.6125804809         1.225579170    
AX        0.5512888823        0.6065968054        -1.169672593    
AX        0.1127609340         1.129260814        0.8745604449    
AX        0.2326200386       -0.1273670903       -0.4314564077    
AX       -0.7710323327        0.2362880935       -0.4627970985    
AX        0.8866952332E-02    0.9365379746       -0.2509633386    
AX       -0.5617339789       -0.7207243861        0.1492335205E-01
AX        0.7565028177        0.3981883160        0.3521394170    
AX        0.4016530014       -0.6172854892        0.5208171864    
    38
Energy=    -170.956696805696    
AX        0.3558913946        0.1517828930         1.355175515    
AX        0.9270037694       -0.9695064427       -0.3881187967    
AX         1.427501740        0.3303762884         1.222339331    
AX       -0.2930354469         1.870265563       -0.7386718365    
AX         1.300557707        0.6657251905E-01   -0.5581572494    
AX       -0.8406598785        -1.702720555       -0.4322554796    
AX        -1.314181269       -0.3061011910        0.6795268321    
AX        0.4237235625         1.884199104        0.1272334147    
AX        -1.277625358        0.7363933701        0.3888542997    
AX        0.2096791355        -1.490184262         1.184027746    
AX        -1.400100166        0.3138734896        -1.325587166    
AX       -0.4704996143        0.9391079787        -1.289676782    
AX       -0.3245991410        0.2120522007        0.5086943447    
AX        -1.128735775       -0.7062754052       -0.9164259378    
AX       -0.3139329512       -0.1280127485        -1.393497275    
AX        0.1263864920        -1.581729679        0.8354377371E-01
AX        -1.793695959       -0.1750633865E-01   -0.2962836248    
AX         1.085920528         1.150844604       -0.3710608296    
AX       -0.6613302632         1.632589917        0.2757633887    
AX         1.479529830       -0.4312897487        0.4160821164    
AX       -0.8251159246        -1.504297308        0.6960403389    
AX         1.186113783         1.328260978        0.7381892907    
AX         1.027202613       -0.7216623607         1.401872796    
AX        0.7440802636       -0.4690916781        -1.361313575    
AX        -1.630342054        -1.087709097       -0.8187684227E-03
AX       -0.6028734856E-01    -1.078868685       -0.8946528829    
AX         1.128144750        -1.470160970        0.5741943513    
AX         1.852408020        0.6025577000        0.2306159120    
AX        -1.241080631         1.217325445       -0.5887635703    
AX       -0.4298476743       -0.6125805244         1.225579122    
AX        0.5512887894        0.6065968309        -1.169672579    
AX        0.1127607717         1.129260786        0.8745605369    
AX        0.2326199160       -0.1273670568       -0.4314563412    
AX       -0.7710322592        0.2362881092       -0.4627970790    
AX        0.8866900648E-02    0.9365378579       -0.2509632808    
AX       -0.5617339729       -0.7207243675        0.1492337570E-01
AX        0.7565027215        0.3981882491        0.3521394294    
AX        0.4016529999       -0.6172854651        0.5208171409    
    38
Energy=    -170.956696805675    
AX        0.3558913907        0.1517829227         1.355175549    
AX        0.9270036935       -0.9695064214       -0.3881187683    
AX         1.427501806        0.3303762942         1.222339267    
AX       -0.2930350777         1.870265503       -0.7386718522    
AX         1.300557603        0.6657252301E-01   -0.5581572937    
AX       -0.8406599152        -1.702720544       -0.4322553737    
AX        -1.314181231       -0.3061012508        0.6795268389    
AX        0.4237235462         1.884198973        0.1272336457    
AX        -1.277625463        0.7363932830        0.3888541599    
AX        0.2096791983        -1.490184175         1.184027724    
AX        -1.400100258        0.3138734660        -1.325587199    
AX       -0.4704996812        0.9391079694        -1.289676830    
AX       -0.3245991656        0.2120522077        0.5086943489    
AX        -1.128735633       -0.7062753618       -0.9164259458    
AX       -0.3139328833       -0.1280127382        -1.393497339    
AX        0.1263864821        -1.581729705        0.8354379940E-01
AX        -1.793695996       -0.1750639707E-01   -0.2962836363    
AX         1.085920510         1.150844629       -0.3710607906    
AX       -0.6613303152         1.632589807        0.2757633606    
AX         1.479529836       -0.4312897536        0.4160820193    
AX       -0.8251158871        -1.504297258        0.6960403963    
AX         1.186113772         1.328260851        0.7381894536    
AX         1.027202732       -0.7216621904         1.401872711    
AX        0.7440802523       -0.4690917103        -1.361313623    
AX        -1.630342092        -1.087709056       -0.8188468368E-03
AX       -0.6028733353E-01    -1.078868684       -0.8946528065    
AX         1.128144770        -1.470160974        0.5741943809    
AX         1.852408036        0.6025576872        0.2306158023    
AX        -1.241080638         1.217325573       -0.5887636567    
AX       -0.4298476555       -0.6125804797         1.225579209    
AX        0.5512887418        0.6065968648        -1.169672586    
AX        0.1127607019         1.129260731        0.8745606644    
AX        0.2326198827       -0.1273670287       -0.4314563594    
AX       -0.7710323517        0.2362881583       -0.4627971542    
AX        0.8866902155E-02    0.9365378346       -0.2509632521    
AX       -0.5617339699       -0.7207243547        0.1492340657E-01
AX        0.7565027070        0.3981882420        0.3521394384    
AX        0.4016529831       -0.6172854371        0.5208171395    
    38
Energy=    -170.956696805662    
AX        0.3558913907        0.1517829480         1.355175554    
AX        0.9270036657       -0.9695064212       -0.3881187410    
AX         1.427501841        0.3303763161         1.222339258    
AX       -0.2930350514         1.870265516       -0.7386718360    
AX         1.300557584        0.6657251188E-01   -0.5581573000    
AX       -0.8406599670        -1.702720526       -0.4322553278    
AX        -1.314181206       -0.3061013219        0.6795268431    
AX        0.4237235248         1.884198930        0.1272336921    
AX        -1.277625516        0.7363932181        0.3888541107    
AX        0.2096792118        -1.490184147         1.184027693    
AX        -1.400100290        0.3138734646        -1.325587228    
AX       -0.4704996844        0.9391079612        -1.289676815    
AX       -0.3245991427        0.2120522053        0.5086943444    
AX        -1.128735567       -0.7062753279       -0.9164259506    
AX       -0.3139328355       -0.1280127328        -1.393497368    
AX        0.1263864563        -1.581729728        0.8354380110E-01
AX        -1.793696007       -0.1750642833E-01   -0.2962836376    
AX         1.085920528         1.150844634       -0.3710607700    
AX       -0.6613303610         1.632589735        0.2757633820    
AX         1.479529855       -0.4312897724        0.4160819937    
AX       -0.8251158990        -1.504297215        0.6960404273    
AX         1.186113799         1.328260838        0.7381894999    
AX         1.027202780       -0.7216621139         1.401872661    
AX        0.7440802653       -0.4690917419        -1.361313631    
AX        -1.630342157        -1.087709039       -0.8188980675E-03
AX       -0.6028733166E-01    -1.078868691       -0.8946527634    
AX         1.128144768        -1.470160995        0.5741943840    
AX         1.852408067        0.6025576682        0.2306157770    
AX        -1.241080678         1.217325611       -0.5887636860    
AX       -0.4298476290       -0.6125804480         1.225579262    
AX        0.5512887633        0.6065968784        -1.169672592    
AX        0.1127607124         1.129260711        0.8745606888    
AX        0.2326198609       -0.1273669773       -0.4314563487    
AX       -0.7710323581        0.2362881719       -0.4627971952    
AX        0.8866914936E-02    0.9365378195       -0.2509632550    
AX       -0.5617339732       -0.7207243263        0.1492340929E-01
AX        0.7565026937        0.3981882211        0.3521394314    
AX        0.4016529742       -0.6172854048        0.5208171322    
    38
Energy=    -170.956696805595    
AX        0.3558913517        0.1517829934         1.355175529    
AX        0.9270036243       -0.9695064178       -0.3881186887    
AX         1.427501870        0.3303764034         1.222339295    
AX       -0.2930352132         1.870265582       -0.7386717979    
AX         1.300557597        0.6657247495E-01   -0.5581572562    
AX       -0.8406601104        -1.702720485       -0.4322552665    
AX        -1.314181169       -0.3061014504        0.6795268633    
AX        0.4237234799         1.884198916        0.1272336416    
AX        -1.277625554        0.7363931240        0.3888540401    
AX        0.2096792508        -1.490184164         1.184027613    
AX        -1.400100316        0.3138734885        -1.325587217    
AX       -0.4704996411        0.9391079214        -1.289676735    
AX       -0.3245990053        0.2120521337        0.5086943955    
AX        -1.128735507       -0.7062752464       -0.9164259409    
AX       -0.3139327669       -0.1280127388        -1.393497413    
AX        0.1263863962        -1.581729810        0.8354377334E-01
AX        -1.793695981       -0.1750645402E-01   -0.2962836323    
AX         1.085920579         1.150844625       -0.3710607127    
AX       -0.6613304444         1.632589673        0.2757634338    
AX         1.479529922       -0.4312898015        0.4160819980    
AX       -0.8251159635        -1.504297191        0.6960404646    
AX         1.186113859         1.328260902        0.7381895292    
AX         1.027202860       -0.7216620072         1.401872573    
AX        0.7440803201       -0.4690918119        -1.361313597    
AX        -1.630342336        -1.087709015       -0.8189542979E-03
AX       -0.6028735035E-01    -1.078868711       -0.8946526865    
AX         1.128144796        -1.470161059        0.5741943494    
AX         1.852408154        0.6025576332        0.2306158110    
AX        -1.241080750         1.217325651       -0.5887637162    
AX       -0.4298475607       -0.6125804226         1.225579284    
AX        0.5512888704        0.6065968985        -1.169672593    
AX        0.1127607554         1.129260703        0.8745606314    
AX        0.2326199023       -0.1273669292       -0.4314562519    
AX       -0.7710325220        0.2362881442       -0.4627973620    
AX        0.8866984782E-02    0.9365378940       -0.2509632672    
AX       -0.5617339654       -0.7207242681        0.1492341416E-01
AX        0.7565026393        0.3981881275        0.3521394077    
AX        0.4016529446       -0.6172853067        0.5208170416    
    38
Energy=    -170.956696805570    
AX        0.3558914439        0.1517829461         1.355175611    
AX        0.9270036892       -0.9695063236       -0.3881187826    
AX         1.427501908        0.3303760027         1.222339102    
AX       -0.2930340325         1.870265310       -0.7386721216    
AX         1.300557396        0.6657262397E-01   -0.5581575440    
AX       -0.8406597040        -1.702720705       -0.4322553983    
AX        -1.314181185       -0.3061011122        0.6795266826    
AX        0.4237235731         1.884198633        0.1272341808    
AX        -1.277625465        0.7363935495        0.3888541836    
AX        0.2096790765        -1.490183957         1.184027785    
AX        -1.400100334        0.3138731701        -1.325587275    
AX       -0.4704999780        0.9391080049        -1.289677119    
AX       -0.3245992933        0.2120522199        0.5086944570    
AX        -1.128735312       -0.7062754030       -0.9164258717    
AX       -0.3139329046       -0.1280126740        -1.393497359    
AX        0.1263866277        -1.581729634        0.8354383023E-01
AX        -1.793696033       -0.1750652046E-01   -0.2962836176    
AX         1.085920317         1.150844713       -0.3710608429    
AX       -0.6613301985         1.632590048        0.2757631619    
AX         1.479529774       -0.4312898031        0.4160818183    
AX       -0.8251155625        -1.504297400        0.6960404450    
AX         1.186113729         1.328260591        0.7381897394    