    38
Energy=    -170.009639512157    
AX        0.3019030046        0.2302841696         1.541493307    
AX         1.011704048       -0.9659813827       -0.5783176358    
AX         1.363828931        0.9398287919E-01     1.193362830    
AX        0.3286137922E-02     1.426001956       -0.9150066258    
AX         1.341144266        0.2561806704E-01   -0.9548915552    
AX       -0.7759446850        -1.599678492       -0.4321719066    
AX        -1.292903024       -0.4607212116        0.9009005926    
AX        0.6164696277         1.575408722        0.3143480464    
AX        -1.101672875         1.043322726        0.5031050918    
AX        0.2770581613        -1.561546770         1.088432381    
AX        -1.540554349        0.3056617023        -1.187346103    
AX       -0.6456143610        0.8425629823        -1.624751907    
AX       -0.4532553440        0.1809321301        0.7479712977    
AX        -1.156379522       -0.7084007917       -0.9779955289    
AX       -0.4135215865       -0.2657803294        -1.777916795    
AX        0.2076169211        -1.401278870        0.1197885592E-01
AX        -1.334251928        0.1374293914       -0.7032865496E-01
AX        0.8760726120        0.8703411757       -0.4563417938    
AX       -0.4450010630         1.837680181        0.6573337046E-01
AX         1.359560197       -0.1692533634        0.1302272381    
AX       -0.7314361293        -1.400030236        0.6689553156    
AX        0.9526358669         1.146223961         1.325091691    
AX        0.8122255124       -0.7618399078         1.600837366    
AX        0.6872004399       -0.5631953464        -1.607911023    
AX        -1.578418239       -0.9759430765       -0.5558257137E-02
AX       -0.7562109394E-01   -0.8992408258       -0.9303285382    
AX         1.200015018        -1.190845325        0.5435465946    
AX         1.583181311        0.9120814218        0.4098248228    
AX        -1.052271547         1.122989133       -0.6116402062    
AX       -0.3370485640       -0.6889674745         1.440265417    
AX        0.3558381054        0.4439726312        -1.322690872    
AX       -0.1260613185         1.184971350         1.009771326    
AX        0.3931367840       -0.1036177294       -0.3570527587    
AX       -0.5396489650        0.1491324297       -0.7985686536    
AX       -0.1763365457        0.8081504040       -0.6509846384E-01
AX       -0.5357770509       -0.5857768672       -0.1106263210E-03
AX        0.6037254170        0.4951345301        0.5413481068    
AX        0.3651158318       -0.5297839440        0.6368342558    
    38
Energy=    -170.009639512157    
AX        0.3019030014        0.2302841718         1.541493307    
AX         1.011704051       -0.9659813816       -0.5783176398    
AX         1.363828928        0.9398287044E-01     1.193362827    
AX        0.3286138979E-02     1.426001955       -0.9150066270    
AX         1.341144265        0.2561806712E-01   -0.9548915600    
AX       -0.7759446769        -1.599678495       -0.4321719070    
AX        -1.292903024       -0.4607212158        0.9009005931    
AX        0.6164696275         1.575408722        0.3143480427    
AX        -1.101672874         1.043322738        0.5031050928    
AX        0.2770581589        -1.561546768         1.088432381    
AX        -1.540554352        0.3056617024        -1.187346097    
AX       -0.6456143622        0.8425629798        -1.624751900    
AX       -0.4532553477        0.1809321310        0.7479712973    
AX        -1.156379517       -0.7084007921       -0.9779955327    
AX       -0.4135215909       -0.2657803265        -1.777916794    
AX        0.2076169269        -1.401278870        0.1197885537E-01
AX        -1.334251928        0.1374293985       -0.7032865142E-01
AX        0.8760726134        0.8703411768       -0.4563417940    
AX       -0.4450010610         1.837680179        0.6573336845E-01
AX         1.359560195       -0.1692533613        0.1302272338    
AX       -0.7314361305        -1.400030236        0.6689553129    
AX        0.9526358692         1.146223960         1.325091692    
AX        0.8122255030       -0.7618399062         1.600837377    
AX        0.6872004375       -0.5631953461        -1.607911028    
AX        -1.578418234       -0.9759430750       -0.5558261576E-02
AX       -0.7562109061E-01   -0.8992408267       -0.9303285379    
AX         1.200015020        -1.190845320        0.5435465972    
AX         1.583181309        0.9120814180        0.4098248234    
AX        -1.052271547         1.122989131       -0.6116402025    
AX       -0.3370485636       -0.6889674757         1.440265419    
AX        0.3558381053        0.4439726292        -1.322690872    
AX       -0.1260613160         1.184971348         1.009771324    
AX        0.3931367851       -0.1036177341       -0.3570527581    
AX       -0.5396489696        0.1491324227       -0.7985686575    
AX       -0.1763365451        0.8081504078       -0.6509846274E-01
AX       -0.5357770488       -0.5857768670       -0.1106281643E-03
AX        0.6037254176        0.4951345290        0.5413481115    
AX        0.3651158285       -0.5297839400        0.6368342566    
    38
Energy=    -170.009639512156    
AX        0.3019029981        0.2302841869         1.541493299    
AX         1.011704063       -0.9659813960       -0.5783176420    
AX         1.363828940        0.9398289625E-01     1.193362841    
AX        0.3286124117E-02     1.426001975       -0.9150066279    
AX         1.341144265        0.2561807083E-01   -0.9548915339    
AX       -0.7759446764        -1.599678506       -0.4321719090    
AX        -1.292903020       -0.4607212193        0.9009005919    
AX        0.6164696183         1.575408725        0.3143480387    
AX        -1.101672867         1.043322742        0.5031051040    
AX        0.2770581425        -1.561546770         1.088432386    
AX        -1.540554351        0.3056616910        -1.187346093    
AX       -0.6456143750        0.8425629820        -1.624751897    
AX       -0.4532553466        0.1809321338        0.7479712820    
AX        -1.156379503       -0.7084008011       -0.9779955333    
AX       -0.4135215781       -0.2657803167        -1.777916787    
AX        0.2076169280        -1.401278882        0.1197885335E-01
AX        -1.334251912        0.1374293962       -0.7032863463E-01
AX        0.8760725992        0.8703411770       -0.4563418033    
AX       -0.4450010708         1.837680196        0.6573336516E-01
AX         1.359560192       -0.1692533959        0.1302272590    
AX       -0.7314361401        -1.400030240        0.6689553127    
AX        0.9526358824         1.146223971         1.325091678    
AX        0.8122254995       -0.7618398901         1.600837351    
AX        0.6872004425       -0.5631953283        -1.607911020    
AX        -1.578418232       -0.9759430780       -0.5558267876E-02
AX       -0.7562108126E-01   -0.8992408382       -0.9303285427    
AX         1.200014991        -1.190845359        0.5435466015    
AX         1.583181310        0.9120814029        0.4098248077    
AX        -1.052271556         1.122989132       -0.6116401989    
AX       -0.3370485583       -0.6889674674         1.440265409    
AX        0.3558380994        0.4439726451        -1.322690866    
AX       -0.1260613109         1.184971351         1.009771333    
AX        0.3931367958       -0.1036177264       -0.3570527636    
AX       -0.5396489618        0.1491324393       -0.7985686321    
AX       -0.1763365424        0.8081504106       -0.6509846965E-01
AX       -0.5357770528       -0.5857768809       -0.1106319522E-03
AX        0.6037254152        0.4951345221        0.5413480960    
AX        0.3651158322       -0.5297839505        0.6368342452    
    38
Energy=    -170.009639512156    
AX        0.3019029934        0.2302842089         1.541493282    
AX         1.011704073       -0.9659814189       -0.5783176473    
AX         1.363828951        0.9398294680E-01     1.193362861    
AX        0.3286102915E-02     1.426002004       -0.9150066212    
AX         1.341144269        0.2561806430E-01   -0.9548915001    
AX       -0.7759446876        -1.599678518       -0.4321719081    
AX        -1.292903022       -0.4607212238        0.9009005899    
AX        0.6164696073         1.575408721        0.3143480351    
AX        -1.101672854         1.043322738        0.5031051175    
AX        0.2770581269        -1.561546778         1.088432391    
AX        -1.540554331        0.3056616608        -1.187346093    
AX       -0.6456143912        0.8425629892        -1.624751901    
AX       -0.4532553428        0.1809321302        0.7479712637    
AX        -1.156379478       -0.7084008084       -0.9779955292    
AX       -0.4135215521       -0.2657802972        -1.777916765    
AX        0.2076169182        -1.401278885        0.1197884742E-01
AX        -1.334251889        0.1374293870       -0.7032860540E-01
AX        0.8760725827        0.8703411827       -0.4563418096    
AX       -0.4450010814         1.837680222        0.6573336357E-01
AX         1.359560195       -0.1692534460        0.1302272975    
AX       -0.7314361483        -1.400030251        0.6689553197    
AX        0.9526358953         1.146223982         1.325091646    
AX        0.8122255062       -0.7618398694         1.600837309    
AX        0.6872004540       -0.5631953034        -1.607911013    
AX        -1.578418244       -0.9759430860       -0.5558270738E-02
AX       -0.7562106903E-01   -0.8992408442       -0.9303285459    
AX         1.200014953        -1.190845420        0.5435465991    
AX         1.583181313        0.9120813901        0.4098247820    
AX        -1.052271574         1.122989140       -0.6116401970    
AX       -0.3370485617       -0.6889674530         1.440265393    
AX        0.3558380886        0.4439726685        -1.322690862    
AX       -0.1260613058         1.184971357         1.009771349    
AX        0.3931367999       -0.1036177422       -0.3570527720    
AX       -0.5396489510        0.1491324463       -0.7985686270    
AX       -0.1763365460        0.8081504455       -0.6509846055E-01
AX       -0.5357770470       -0.5857769030       -0.1106357765E-03
AX        0.6037254202        0.4951345180        0.5413480901    
AX        0.3651158263       -0.5297839551        0.6368342276    
    38
Energy=    -170.009639512155    
AX        0.3019029928        0.2302842172         1.541493275    
AX         1.011704074       -0.9659814313       -0.5783176466    
AX         1.363828957        0.9398297636E-01     1.193362871    
AX        0.3286091259E-02     1.426002017       -0.9150066176    
AX         1.341144272        0.2561806088E-01   -0.9548914804    
AX       -0.7759446994        -1.599678519       -0.4321719071    
AX        -1.292903023       -0.4607212234        0.9009005879    
AX        0.6164696028         1.575408722        0.3143480389    
AX        -1.101672849         1.043322730        0.5031051222    
AX        0.2770581225        -1.561546782         1.088432392    
AX        -1.540554318        0.3056616438        -1.187346094    
AX       -0.6456143982        0.8425629955        -1.624751907    
AX       -0.4532553393        0.1809321290        0.7479712563    
AX        -1.156379469       -0.7084008139       -0.9779955239    
AX       -0.4135215366       -0.2657802913        -1.777916756    
AX        0.2076169086        -1.401278886        0.1197884550E-01
AX        -1.334251879        0.1374293775       -0.7032859390E-01
AX        0.8760725751        0.8703411824       -0.4563418143    
AX       -0.4450010872         1.837680238        0.6573336523E-01
AX         1.359560196       -0.1692534708        0.1302273176    
AX       -0.7314361498        -1.400030257        0.6689553241    
AX        0.9526358987         1.146223988         1.325091629    
AX        0.8122255157       -0.7618398624         1.600837282    
AX        0.6872004622       -0.5631952913        -1.607911007    
AX        -1.578418252       -0.9759430902       -0.5558268177E-02
AX       -0.7562106595E-01   -0.8992408473       -0.9303285497    
AX         1.200014936        -1.190845452        0.5435465959    
AX         1.583181319        0.9120813886        0.4098247669    
AX        -1.052271583         1.122989145       -0.6116401976    
AX       -0.3370485671       -0.6889674443         1.440265385    
AX        0.3558380849        0.4439726816        -1.322690860    
AX       -0.1260613058         1.184971359         1.009771358    
AX        0.3931368015       -0.1036177423       -0.3570527777    
AX       -0.5396489396        0.1491324557       -0.7985686226    
AX       -0.1763365480        0.8081504598       -0.6509845792E-01
AX       -0.5357770482       -0.5857769144       -0.1106355066E-03
AX        0.6037254225        0.4951345153        0.5413480829    
AX        0.3651158282       -0.5297839622        0.6368342225    
    38
Energy=    -170.009639512154    
AX        0.3019029750        0.2302842305         1.541493270    
AX         1.011704060       -0.9659814467       -0.5783176405    
AX         1.363828940        0.9398298085E-01     1.193362861    
AX        0.3286044504E-02     1.426002036       -0.9150066386    
AX         1.341144269        0.2561806214E-01   -0.9548914509    
AX       -0.7759446970        -1.599678524       -0.4321719050    
AX        -1.292903026       -0.4607212274        0.9009005893    
AX        0.6164696105         1.575408730        0.3143480693    
AX        -1.101672847         1.043322756        0.5031051109    
AX        0.2770581133        -1.561546783         1.088432406    
AX        -1.540554287        0.3056616105        -1.187346069    
AX       -0.6456144149        0.8425629981        -1.624751908    
AX       -0.4532553457        0.1809321178        0.7479712223    
AX        -1.156379437       -0.7084008205       -0.9779955028    
AX       -0.4135215210       -0.2657802933        -1.777916749    
AX        0.2076169036        -1.401278903        0.1197885504E-01
AX        -1.334251866        0.1374293764       -0.7032859760E-01
AX        0.8760725543        0.8703412223       -0.4563418167    
AX       -0.4450010882         1.837680288        0.6573339182E-01
AX         1.359560177       -0.1692535192        0.1302273278    
AX       -0.7314361466        -1.400030276        0.6689553258    
AX        0.9526359125         1.146223982         1.325091606    
AX        0.8122255049       -0.7618398559         1.600837285    
AX        0.6872004794       -0.5631952619        -1.607911006    
AX        -1.578418252       -0.9759431069       -0.5558252365E-02
AX       -0.7562104214E-01   -0.8992408652       -0.9303285546    
AX         1.200014930        -1.190845506        0.5435466025    
AX         1.583181331        0.9120813716        0.4098247093    
AX        -1.052271595         1.122989155       -0.6116401947    
AX       -0.3370485858       -0.6889674286         1.440265377    
AX        0.3558381012        0.4439727149        -1.322690883    
AX       -0.1260613026         1.184971328         1.009771368    
AX        0.3931368163       -0.1036177402       -0.3570527733    
AX       -0.5396489439        0.1491324691       -0.7985686013    
AX       -0.1763365412        0.8081505048       -0.6509845609E-01
AX       -0.5357770472       -0.5857769220       -0.1106455508E-03
AX        0.6037254334        0.4951345243        0.5413480483    
AX        0.3651158327       -0.5297839777        0.6368342190    
    38
Energy=    -170.009639512151    
AX        0.3019029532        0.2302842267         1.541493232    
AX         1.011704010       -0.9659814651       -0.5783176262    
AX         1.363828916        0.9398298546E-01     1.193362849    
AX        0.3285965657E-02     1.426002073       -0.9150066906    
AX         1.341144270        0.2561808623E-01   -0.9548913755    
AX       -0.7759446958        -1.599678547       -0.4321718951    
AX        -1.292903036       -0.4607212299        0.9009005882    
AX        0.6164696221         1.575408763        0.3143481282    
AX        -1.101672856         1.043322799        0.5031050836    
AX        0.2770581003        -1.561546777         1.088432441    
AX        -1.540554265        0.3056615678        -1.187346042    
AX       -0.6456144316        0.8425629887        -1.624751900    
AX       -0.4532553451        0.1809321125        0.7479711473    
AX        -1.156379385       -0.7084008266       -0.9779954407    
AX       -0.4135214971       -0.2657802907        -1.777916725    
AX        0.2076168840        -1.401278961        0.1197888152E-01
AX        -1.334251872        0.1374293816       -0.7032860737E-01
AX        0.8760725152        0.8703413152       -0.4563418564    
AX       -0.4450010774         1.837680352        0.6573345333E-01
AX         1.359560153       -0.1692536026        0.1302273647    
AX       -0.7314361535        -1.400030288        0.6689553259    
AX        0.9526359358         1.146223983         1.325091563    
AX        0.8122255070       -0.7618398554         1.600837308    
AX        0.6872005135       -0.5631952106        -1.607910994    
AX        -1.578418259       -0.9759431311       -0.5558226017E-02
AX       -0.7562099813E-01   -0.8992408921       -0.9303285483    
AX         1.200014929        -1.190845595        0.5435465916    
AX         1.583181351        0.9120813295        0.4098245965    
AX        -1.052271612         1.122989159       -0.6116401850    
AX       -0.3370486030       -0.6889674172         1.440265363    
AX        0.3558381247        0.4439727648        -1.322690910    
AX       -0.1260613043         1.184971265         1.009771376    
AX        0.3931368018       -0.1036177043       -0.3570527887    
AX       -0.5396488769        0.1491324985       -0.7985685908    
AX       -0.1763365275        0.8081505720       -0.6509845839E-01
AX       -0.5357770369       -0.5857769528       -0.1106697104E-03
AX        0.6037254319        0.4951345077        0.5413480281    
AX        0.3651158484       -0.5297839848        0.6368342101    
    38
Energy=    -170.009639512148    
AX        0.3019029381        0.2302842167         1.541493207    
AX         1.011703976       -0.9659814637       -0.5783176149    
AX         1.363828903        0.9398296485E-01     1.193362836    
AX        0.3285920083E-02     1.426002096       -0.9150067297    
AX         1.341144262        0.2561811331E-01   -0.9548913338    
AX       -0.7759446810        -1.599678567       -0.4321718926    
AX        -1.292903041       -0.4607212304        0.9009005915    
AX        0.6164696319         1.575408783        0.3143481639    
AX        -1.101672867         1.043322831        0.5031050656    
AX        0.2770580906        -1.561546769         1.088432474    
AX        -1.540554261        0.3056615629        -1.187346025    
AX       -0.6456144378        0.8425629762        -1.624751896    
AX       -0.4532553476        0.1809321075        0.7479710949    
AX        -1.156379351       -0.7084008172       -0.9779954031    
AX       -0.4135214943       -0.2657802974        -1.777916714    
AX        0.2076168820        -1.401279010        0.1197890543E-01
AX        -1.334251870        0.1374293879       -0.7032862444E-01
AX        0.8760724841        0.8703413842       -0.4563418818    
AX       -0.4450010680         1.837680382        0.6573349503E-01
AX         1.359560134       -0.1692536467        0.1302273767    
AX       -0.7314361587        -1.400030288        0.6689553246    
AX        0.9526359541         1.146223978         1.325091547    
AX        0.8122254998       -0.7618398547         1.600837345    
AX        0.6872005299       -0.5631951851        -1.607910984    
AX        -1.578418248       -0.9759431473       -0.5558211973E-02
AX       -0.7562096818E-01   -0.8992409122       -0.9303285377    
AX         1.200014933        -1.190845639        0.5435465884    
AX         1.583181354        0.9120812910        0.4098245299    
AX        -1.052271616         1.122989161       -0.6116401817    
AX       -0.3370486036       -0.6889674148         1.440265356    
AX        0.3558381442        0.4439727906        -1.322690935    
AX       -0.1260613068         1.184971226         1.009771375    
AX        0.3931368076       -0.1036176739       -0.3570527848    
AX       -0.5396488643        0.1491325148       -0.7985685792    
AX       -0.1763365130        0.8081506064       -0.6509846132E-01
AX       -0.5357770292       -0.5857769653       -0.1106907863E-03
AX        0.6037254239        0.4951344970        0.5413480043    
AX        0.3651158602       -0.5297839875        0.6368342015    
    38
Energy=    -170.009639512144    
AX        0.3019029473        0.2302841759         1.541493139    
AX         1.011703901       -0.9659814418       -0.5783175729    
AX         1.363828936        0.9398300631E-01     1.193362865    
AX        0.3285867599E-02     1.426002157       -0.9150067674    
AX         1.341144257        0.2561818306E-01   -0.9548912209    
AX       -0.7759446918        -1.599678616       -0.4321718972    
AX        -1.292903041       -0.4607211986        0.9009005932    
AX        0.6164696314         1.575408804        0.3143482050    
AX        -1.101672887         1.043322797        0.5031050574    
AX        0.2770580714        -1.561546765         1.088432545    
AX        -1.540554271        0.3056616018        -1.187346054    
AX       -0.6456144323        0.8425629642        -1.624751932    
AX       -0.4532553391        0.1809320813        0.7479710176    
AX        -1.156379323       -0.7084007674       -0.9779953371    
AX       -0.4135214756       -0.2657803202        -1.777916676    
AX        0.2076168549        -1.401279123        0.1197895612E-01
AX        -1.334251846        0.1374293544       -0.7032864661E-01
AX        0.8760724138        0.8703415090       -0.4563419341    
AX       -0.4450010677         1.837680381        0.6573355087E-01
AX         1.359560126       -0.1692537351        0.1302274549    
AX       -0.7314361799        -1.400030263        0.6689553406    
AX        0.9526359712         1.146223975         1.325091497    
AX        0.8122255536       -0.7618398494         1.600837327    
AX        0.6872005651       -0.5631951504        -1.607910912    
AX        -1.578418238       -0.9759431697       -0.5558194976E-02
AX       -0.7562093819E-01   -0.8992409329       -0.9303284997    
AX         1.200014893        -1.190845750        0.5435465570    
AX         1.583181328        0.9120812084        0.4098244406    
AX        -1.052271616         1.122989169       -0.6116401885    
AX       -0.3370485732       -0.6889674065         1.440265323    
AX        0.3558381478        0.4439728274        -1.322690961    
AX       -0.1260613241         1.184971208         1.009771375    
AX        0.3931368144       -0.1036176084       -0.3570527988    
AX       -0.5396488530        0.1491325618       -0.7985685709    
AX       -0.1763365190        0.8081506705       -0.6509850582E-01
AX       -0.5357770051       -0.5857769966       -0.1107224978E-03
AX        0.6037254515        0.4951344981        0.5413479909    
AX        0.3651158906       -0.5297840397        0.6368341605    
    38
Energy=    -170.009639512139    
AX        0.3019029736        0.2302841378         1.541493084    
AX         1.011703843       -0.9659814242       -0.5783175276    
AX         1.363828994        0.9398308502E-01     1.193362919    
AX        0.3285838240E-02     1.426002216       -0.9150067896    
AX         1.341144264        0.2561823856E-01   -0.9548911103    
AX       -0.7759447251        -1.599678651       -0.4321719006    
AX        -1.292903038       -0.4607211611        0.9009005906    
AX        0.6164696201         1.575408822        0.3143482241    
AX        -1.101672899         1.043322731        0.5031050593    
AX        0.2770580526        -1.561546772         1.088432594    
AX        -1.540554278        0.3056616399        -1.187346102    
AX       -0.6456144235        0.8425629591        -1.624751971    
AX       -0.4532553023        0.1809320680        0.7479709609    
AX        -1.156379316       -0.7084007184       -0.9779952861    
AX       -0.4135214505       -0.2657803340        -1.777916640    
AX        0.2076168147        -1.401279220        0.1197898528E-01
AX        -1.334251832        0.1374293117       -0.7032866712E-01
AX        0.8760723606        0.8703415958       -0.4563419753    
AX       -0.4450010813         1.837680364        0.6573358396E-01
AX         1.359560122       -0.1692538109        0.1302275431    
AX       -0.7314362059        -1.400030237        0.6689553583    
AX        0.9526359779         1.146223998         1.325091459    
AX        0.8122256364       -0.7618398464         1.600837261    
AX        0.6872005976       -0.5631951228        -1.607910826    
AX        -1.578418245       -0.9759431824       -0.5558178721E-02
AX       -0.7562093387E-01   -0.8992409462       -0.9303284668    
AX         1.200014850        -1.190845862        0.5435465186    
AX         1.583181317        0.9120811566        0.4098243834    
AX        -1.052271623         1.122989172       -0.6116402024    
AX       -0.3370485371       -0.6889674008         1.440265290    
AX        0.3558381427        0.4439728591        -1.322690972    
AX       -0.1260613425         1.184971210         1.009771371    
AX        0.3931368309       -0.1036175533       -0.3570528005    
AX       -0.5396488613        0.1491325895       -0.7985685920    
AX       -0.1763364971        0.8081506969       -0.6509850472E-01
AX       -0.5357769896       -0.5857770263       -0.1107400321E-03
AX        0.6037254348        0.4951344802        0.5413479638    
AX        0.3651159141       -0.5297840616        0.6368341028    
    38
Energy=    -170.009639512132    
AX        0.3019030274        0.2302841059         1.541493046    
AX         1.011703787       -0.9659814090       -0.5783174536    
AX         1.363829085        0.9398322518E-01     1.193363000    
AX        0.3285812554E-02     1.426002282       -0.9150067942    
AX         1.341144280        0.2561829461E-01   -0.9548909769    
AX       -0.7759447882        -1.599678675       -0.4321719152    
AX        -1.292903018       -0.4607210970        0.9009005842    
AX        0.6164695951         1.575408830        0.3143482390    
AX        -1.101672906         1.043322604        0.5031050673    
AX        0.2770580266        -1.561546795         1.088432641    
AX        -1.540554280        0.3056616978        -1.187346178    
AX       -0.6456144113        0.8425629680        -1.624752040    
AX       -0.4532552491        0.1809320391        0.7479709267    
AX        -1.156379343       -0.7084006569       -0.9779952456    
AX       -0.4135214127       -0.2657803619        -1.777916601    
AX        0.2076167568        -1.401279323        0.1197901158E-01
AX        -1.334251823        0.1374292368       -0.7032869564E-01
AX        0.8760723064        0.8703416753       -0.4563420016    
AX       -0.4450011225         1.837680332        0.6573360200E-01
AX         1.359560120       -0.1692539053        0.1302276640    
AX       -0.7314362301        -1.400030209        0.6689553811    
AX        0.9526359692         1.146224024         1.325091411    
AX        0.8122257606       -0.7618398417         1.600837114    
AX        0.6872006355       -0.5631950959        -1.607910694    
AX        -1.578418253       -0.9759431941       -0.5558153533E-02
AX       -0.7562095436E-01   -0.8992409558       -0.9303284341    
AX         1.200014785        -1.190846017        0.5435464895    
AX         1.583181300        0.9120811165        0.4098243446    
AX        -1.052271630         1.122989184       -0.6116402256    
AX       -0.3370484863       -0.6889673787         1.440265242    
AX        0.3558381224        0.4439728984        -1.322690975    
AX       -0.1260613640         1.184971235         1.009771373    
AX        0.3931368505       -0.1036174980       -0.3570528246    
AX       -0.5396488884        0.1491326244       -0.7985686222    
AX       -0.1763364833        0.8081507297       -0.6509852220E-01
AX       -0.5357769762       -0.5857770493       -0.1107457874E-03
AX        0.6037254503        0.4951344957        0.5413479345    
AX        0.3651159493       -0.5297841354        0.6368340267    
    38
Energy=    -170.009639512120    
AX        0.3019031037        0.2302841024         1.541493048    
AX         1.011703751       -0.9659814094       -0.5783173364    
AX         1.363829188        0.9398338264E-01     1.193363077    
AX        0.3285754048E-02     1.426002352       -0.9150068221    
AX         1.341144310        0.2561835389E-01   -0.9548908268    
AX       -0.7759448617        -1.599678672       -0.4321719415    
AX        -1.292902971       -0.4607210069        0.9009005760    
AX        0.6164695687         1.575408852        0.3143482731    
AX        -1.101672899         1.043322449        0.5031050530    
AX        0.2770579775        -1.561546841         1.088432672    
AX        -1.540554288        0.3056617628        -1.187346253    
AX       -0.6456144147        0.8425629707        -1.624752116    
AX       -0.4532551472        0.1809320136        0.7479708994    
AX        -1.156379411       -0.7084006061       -0.9779952211    
AX       -0.4135213709       -0.2657804048        -1.777916567    
AX        0.2076166888        -1.401279435        0.1197902253E-01
AX        -1.334251871        0.1374291552       -0.7032875386E-01
AX        0.8760722618        0.8703417721       -0.4563420045    
AX       -0.4450011949         1.837680314        0.6573361035E-01
AX         1.359560103       -0.1692540297        0.1302278007    
AX       -0.7314362531        -1.400030192        0.6689553894    
AX        0.9526359555         1.146224048         1.325091384    