    38
Energy=    -169.403102763542    
AX        0.2954689273        0.3205475777         1.683947764    
AX        0.9786854266        -1.121943650       -0.4950901332    
AX         1.475614111        0.1950733000         1.162924174    
AX       -0.1559715154         1.504320416       -0.9718552439    
AX         1.430462876        0.3452349549       -0.9232292029    
AX       -0.8280258844        -1.685573283       -0.5114613791    
AX        -1.314778987       -0.4643850831        0.8757437646    
AX        0.6294384405         1.677234438        0.2652088637    
AX        -1.182381979         1.071291412        0.6209098321    
AX        0.1687871263        -1.554112381         1.114768161    
AX        -1.468571465        0.8592897464E-01   -0.9837520751    
AX       -0.7106994547        0.7102182981        -1.518531537    
AX       -0.8167546578        0.3953171893         1.416518976    
AX        -1.024551260       -0.8738034717        -1.269756022    
AX       -0.2214577651       -0.2811327712        -1.725985474    
AX        0.1675391044        -1.803876766       -0.3148587402E-01
AX        -1.639527235        0.2280656098        0.8940114700E-01
AX        0.9272858796         1.333380403       -0.7424927733    
AX       -0.4595377233         1.746670446        0.8099234567E-01
AX         1.335778008       -0.4198665535        0.2795737127    
AX       -0.7255848367        -1.356821878        0.5524445376    
AX        0.9167164784         1.107185333         1.148973824    
AX        0.8034844417       -0.6623831863         1.244855224    
AX        0.8040517024       -0.4826196482        -1.392367825    
AX        -1.034084497       -0.6524994324       -0.1957737425    
AX       -0.4573169238E-01   -0.9585727121       -0.7882941738    
AX         1.078835953        -1.461449516        0.5309115359    
AX         1.225350893        0.7102984827        0.1186613564    
AX       -0.9569568391        0.9222051189       -0.4413799770    
AX       -0.2748091318       -0.5220670321         1.209059913    
AX        0.3674978811        0.5532760805        -1.264612726    
AX       -0.1242393146         1.056329000        0.8768412638    
AX        0.5943794919       -0.8926407719E-01   -0.4105882200    
AX       -0.4173059731        0.3977773145E-01   -0.7115038556    
AX        0.1186981151        0.8295161925       -0.1716661406    
AX       -0.5618663830        0.1594389663        0.3591599848    
AX        0.4726659347        0.1794735053        0.6460659844    
AX        0.1720958056       -0.7804119889        0.2728640101    
    38
Energy=    -169.403102763541    
AX        0.2954689296        0.3205475937         1.683947771    
AX        0.9786854316        -1.121943652       -0.4950901315    
AX         1.475614084        0.1950733011         1.162924187    
AX       -0.1559715184         1.504320410       -0.9718552571    
AX         1.430462873        0.3452349513       -0.9232291838    
AX       -0.8280258934        -1.685573273       -0.5114613783    
AX        -1.314778979       -0.4643850887        0.8757437704    
AX        0.6294384422         1.677234452        0.2652088562    
AX        -1.182381972         1.071291423        0.6209098302    
AX        0.1687871328        -1.554112403         1.114768156    
AX        -1.468571482        0.8592897157E-01   -0.9837520641    
AX       -0.7106994673        0.7102182912        -1.518531541    
AX       -0.8167546482        0.3953171898         1.416518961    
AX        -1.024551248       -0.8738034603        -1.269756027    
AX       -0.2214577569       -0.2811327625        -1.725985480    
AX        0.1675391035        -1.803876777       -0.3148588834E-01
AX        -1.639527234        0.2280656150        0.8940116320E-01
AX        0.9272858820         1.333380408       -0.7424927742    
AX       -0.4595377199         1.746670453        0.8099233056E-01
AX         1.335778003       -0.4198665584        0.2795737231    
AX       -0.7255848271        -1.356821868        0.5524445321    
AX        0.9167164785         1.107185351         1.148973822    
AX        0.8034844468       -0.6623832081         1.244855223    
AX        0.8040517010       -0.4826196460        -1.392367818    
AX        -1.034084510       -0.6524994370       -0.1957737413    
AX       -0.4573169798E-01   -0.9585727047       -0.7882941674    
AX         1.078835961        -1.461449536        0.5309115275    
AX         1.225350878        0.7102984864        0.1186613649    
AX       -0.9569568426        0.9222051231       -0.4413799732    
AX       -0.2748091200       -0.5220670354         1.209059913    
AX        0.3674978779        0.5532760775        -1.264612720    
AX       -0.1242393135         1.056329005        0.8768412521    
AX        0.5943794690       -0.8926406741E-01   -0.4105882172    
AX       -0.4173059566        0.3977772691E-01   -0.7115038762    
AX        0.1186981207        0.8295161899       -0.1716661449    
AX       -0.5618663777        0.1594389640        0.3591599865    
AX        0.4726659257        0.1794734948        0.6460659890    
AX        0.1720958255       -0.7804120017        0.2728640258    
    38
Energy=    -169.403102763541    
AX        0.2954689534        0.3205476272         1.683947779    
AX        0.9786854333        -1.121943645       -0.4950901248    
AX         1.475614014        0.1950733024         1.162924218    
AX       -0.1559715253         1.504320396       -0.9718552831    
AX         1.430462867        0.3452349452       -0.9232291430    
AX       -0.8280259136        -1.685573238       -0.5114613792    
AX        -1.314778982       -0.4643851050        0.8757437945    
AX        0.6294384439         1.677234481        0.2652088382    
AX        -1.182381965         1.071291450        0.6209098387    
AX        0.1687871460        -1.554112454         1.114768145    
AX        -1.468571516        0.8592895827E-01   -0.9837520464    
AX       -0.7106994979        0.7102182725        -1.518531546    
AX       -0.8167546153        0.3953171889         1.416518936    
AX        -1.024551219       -0.8738034357        -1.269756044    
AX       -0.2214577284       -0.2811327565        -1.725985505    
AX        0.1675391005        -1.803876794       -0.3148591199E-01
AX        -1.639527231        0.2280656254        0.8940119671E-01
AX        0.9272858909         1.333380421       -0.7424927762    
AX       -0.4595377107         1.746670464        0.8099229691E-01
AX         1.335777987       -0.4198665643        0.2795737357    
AX       -0.7255847994        -1.356821840        0.5524445244    
AX        0.9167164742         1.107185393         1.148973812    
AX        0.8034844575       -0.6623832625         1.244855219    
AX        0.8040517014       -0.4826196421        -1.392367795    
AX        -1.034084543       -0.6524994112       -0.1957737501    
AX       -0.4573168876E-01   -0.9585726990       -0.7882941441    
AX         1.078835979        -1.461449582        0.5309115141    
AX         1.225350847        0.7102984926        0.1186613874    
AX       -0.9569568384        0.9222051055       -0.4413799641    
AX       -0.2748090967       -0.5220670411         1.209059912    
AX        0.3674978829        0.5532760888        -1.264612721    
AX       -0.1242392980         1.056329013        0.8768412180    
AX        0.5943794582       -0.8926407502E-01   -0.4105882022    
AX       -0.4173059883        0.3977772954E-01   -0.7115038818    
AX        0.1186981207        0.8295161996       -0.1716661530    
AX       -0.5618663786        0.1594389490        0.3591599632    
AX        0.4726659117        0.1794734807        0.6460660108    
AX        0.1720958667       -0.7804120380        0.2728640324    
    38
Energy=    -169.403102763540    
AX        0.2954689731        0.3205476428         1.683947778    
AX        0.9786854441        -1.121943632       -0.4950901244    
AX         1.475613978        0.1950732969         1.162924244    
AX       -0.1559715282         1.504320380       -0.9718553044    
AX         1.430462860        0.3452349364       -0.9232291251    
AX       -0.8280259157        -1.685573218       -0.5114613670    
AX        -1.314778980       -0.4643850938        0.8757438128    
AX        0.6294384450         1.677234502        0.2652088340    
AX        -1.182381962         1.071291454        0.6209098379    
AX        0.1687871505        -1.554112493         1.114768140    
AX        -1.468571537        0.8592895850E-01   -0.9837520286    
AX       -0.7106995148        0.7102182541        -1.518531541    
AX       -0.8167546016        0.3953171868         1.416518928    
AX        -1.024551199       -0.8738034074        -1.269756059    
AX       -0.2214577006       -0.2811327469        -1.725985520    
AX        0.1675391165        -1.803876799       -0.3148593521E-01
AX        -1.639527245        0.2280656301        0.8940121348E-01
AX        0.9272858877         1.333380425       -0.7424927793    
AX       -0.4595377044         1.746670474        0.8099227830E-01
AX         1.335777973       -0.4198665654        0.2795737489    
AX       -0.7255847897        -1.356821815        0.5524445291    
AX        0.9167164759         1.107185411         1.148973806    
AX        0.8034844592       -0.6623832966         1.244855216    
AX        0.8040517089       -0.4826196501        -1.392367783    
AX        -1.034084575       -0.6524994055       -0.1957737517    
AX       -0.4573168271E-01   -0.9585727002       -0.7882941441    
AX         1.078835984        -1.461449604        0.5309115030    
AX         1.225350831        0.7102985022        0.1186613948    
AX       -0.9569568363        0.9222050997       -0.4413799574    
AX       -0.2748090800       -0.5220670425         1.209059908    
AX        0.3674978845        0.5532760833        -1.264612721    
AX       -0.1242392946         1.056329013        0.8768412037    
AX        0.5943794453       -0.8926407482E-01   -0.4105881950    
AX       -0.4173059952        0.3977772211E-01   -0.7115038892    
AX        0.1186981205        0.8295162064       -0.1716661553    
AX       -0.5618663793        0.1594389434        0.3591599539    
AX        0.4726659033        0.1794734684        0.6460660159    
AX        0.1720958819       -0.7804120488        0.2728640340    
    38
Energy=    -169.403102763539    
AX        0.2954689977        0.3205476427         1.683947771    
AX        0.9786854506        -1.121943620       -0.4950901226    
AX         1.475613958        0.1950732905         1.162924264    
AX       -0.1559715297         1.504320368       -0.9718553167    
AX         1.430462857        0.3452349329       -0.9232291221    
AX       -0.8280259095        -1.685573206       -0.5114613576    
AX        -1.314778981       -0.4643850810        0.8757438258    
AX        0.6294384450         1.677234514        0.2652088350    
AX        -1.182381964         1.071291452        0.6209098387    
AX        0.1687871494        -1.554112513         1.114768143    
AX        -1.468571550        0.8592896361E-01   -0.9837520162    
AX       -0.7106995217        0.7102182392        -1.518531531    
AX       -0.8167545928        0.3953171849         1.416518930    
AX        -1.024551190       -0.8738033854        -1.269756070    
AX       -0.2214576758       -0.2811327430        -1.725985525    
AX        0.1675391307        -1.803876799       -0.3148594532E-01
AX        -1.639527263        0.2280656320        0.8940122217E-01
AX        0.9272858833         1.333380426       -0.7424927799    
AX       -0.4595377015         1.746670481        0.8099226942E-01
AX         1.335777965       -0.4198665628        0.2795737550    
AX       -0.7255847859        -1.356821795        0.5524445330    
AX        0.9167164777         1.107185419         1.148973801    
AX        0.8034844552       -0.6623833129         1.244855210    
AX        0.8040517234       -0.4826196606        -1.392367778    
AX        -1.034084607       -0.6524994041       -0.1957737535    
AX       -0.4573167484E-01   -0.9585727057       -0.7882941533    
AX         1.078835983        -1.461449611        0.5309114994    
AX         1.225350830        0.7102985097        0.1186613955    
AX       -0.9569568341        0.9222050938       -0.4413799513    
AX       -0.2748090708       -0.5220670421         1.209059903    
AX        0.3674978853        0.5532760771        -1.264612721    
AX       -0.1242392955         1.056329011        0.8768411968    
AX        0.5943794428       -0.8926407792E-01   -0.4105881916    
AX       -0.4173060029        0.3977771452E-01   -0.7115038872    
AX        0.1186981165        0.8295162127       -0.1716661564    
AX       -0.5618663832        0.1594389402        0.3591599480    
AX        0.4726658969        0.1794734609        0.6460660119    
AX        0.1720958869       -0.7804120441        0.2728640277    
    38
Energy=    -169.403102763538    
AX        0.2954690354        0.3205476303         1.683947758    
AX        0.9786854473        -1.121943612       -0.4950901141    
AX         1.475613946        0.1950732852         1.162924277    
AX       -0.1559715299         1.504320361       -0.9718553232    
AX         1.430462865        0.3452349410       -0.9232291345    
AX       -0.8280258975        -1.685573193       -0.5114613526    
AX        -1.314778991       -0.4643850761        0.8757438401    
AX        0.6294384455         1.677234520        0.2652088409    
AX        -1.182381975         1.071291447        0.6209098463    
AX        0.1687871424        -1.554112521         1.114768162    
AX        -1.468571559        0.8592896834E-01   -0.9837520063    
AX       -0.7106995215        0.7102182210        -1.518531511    
AX       -0.8167545849        0.3953171800         1.416518935    
AX        -1.024551187       -0.8738033677        -1.269756085    
AX       -0.2214576440       -0.2811327459        -1.725985518    
AX        0.1675391400        -1.803876800       -0.3148593997E-01
AX        -1.639527286        0.2280656303        0.8940122979E-01
AX        0.9272858806         1.333380428       -0.7424927755    
AX       -0.4595376989         1.746670486        0.8099226636E-01
AX         1.335777960       -0.4198665589        0.2795737507    
AX       -0.7255847862        -1.356821777        0.5524445334    
AX        0.9167164786         1.107185422         1.148973798    
AX        0.8034844469       -0.6623833167         1.244855193    
AX        0.8040517515       -0.4826196765        -1.392367777    
AX        -1.034084649       -0.6524994110       -0.1957737559    
AX       -0.4573166642E-01   -0.9585727142       -0.7882941746    
AX         1.078835974        -1.461449613        0.5309115049    
AX         1.225350845        0.7102985190        0.1186613901    
AX       -0.9569568295        0.9222050838       -0.4413799383    
AX       -0.2748090657       -0.5220670380         1.209059892    
AX        0.3674978849        0.5532760750        -1.264612725    
AX       -0.1242393035         1.056329004        0.8768411895    
AX        0.5943794489       -0.8926408957E-01   -0.4105881793    
AX       -0.4173060077        0.3977770876E-01   -0.7115038806    
AX        0.1186981105        0.8295162198       -0.1716661581    
AX       -0.5618663881        0.1594389381        0.3591599486    
AX        0.4726658864        0.1794734464        0.6460659896    
AX        0.1720958841       -0.7804120053        0.2728640050    
    38
Energy=    -169.403102763536    
AX        0.2954690404        0.3205476421         1.683947791    
AX        0.9786855404        -1.121943592       -0.4950901440    
AX         1.475613870        0.1950732657         1.162924377    
AX       -0.1559715554         1.504320324       -0.9718553471    
AX         1.430462840        0.3452348971       -0.9232290727    
AX       -0.8280259053        -1.685573162       -0.5114613218    
AX        -1.314778962       -0.4643849700        0.8757438544    
AX        0.6294384147         1.677234531        0.2652087934    
AX        -1.182381926         1.071291427        0.6209098337    
AX        0.1687871556        -1.554112590         1.114768047    
AX        -1.468571594        0.8592899714E-01   -0.9837519787    
AX       -0.7106995470        0.7102181999        -1.518531557    
AX       -0.8167545265        0.3953172126         1.416518961    
AX        -1.024551128       -0.8738032967        -1.269756046    
AX       -0.2214576298       -0.2811327225        -1.725985587    
AX        0.1675391830        -1.803876809       -0.3148603253E-01
AX        -1.639527328        0.2280656803        0.8940124257E-01
AX        0.9272858529         1.333380401       -0.7424928060    
AX       -0.4595377256         1.746670469        0.8099224209E-01
AX         1.335777938       -0.4198665446        0.2795738111    
AX       -0.7255847946        -1.356821718        0.5524445433    
AX        0.9167164976         1.107185451         1.148973772    
AX        0.8034844436       -0.6623833798         1.244855235    
AX        0.8040517437       -0.4826196570        -1.392367777    
AX        -1.034084696       -0.6524993606       -0.1957737448    
AX       -0.4573162503E-01   -0.9585727221       -0.7882941473    
AX         1.078836025        -1.461449634        0.5309114608    
AX         1.225350770        0.7102985143        0.1186614012    
AX       -0.9569568456        0.9222050740       -0.4413799738    
AX       -0.2748090548       -0.5220670502         1.209059910    
AX        0.3674978770        0.5532760409        -1.264612713    
AX       -0.1242392768         1.056329029        0.8768411952    
AX        0.5943794274       -0.8926408663E-01   -0.4105881929    
AX       -0.4173060353        0.3977767199E-01   -0.7115039217    
AX        0.1186980993        0.8295162066       -0.1716661676    
AX       -0.5618663955        0.1594389386        0.3591599328    
AX        0.4726658775        0.1794734386        0.6460660561    
AX        0.1720959558       -0.7804121181        0.2728640703    
    38
Energy=    -169.403102763533    
AX        0.2954690444        0.3205476409         1.683947833    
AX        0.9786856144        -1.121943584       -0.4950901689    
AX         1.475613815        0.1950732578         1.162924453    
AX       -0.1559715833         1.504320303       -0.9718553496    
AX         1.430462843        0.3452348819       -0.9232290339    
AX       -0.8280259210        -1.685573127       -0.5114613087    
AX        -1.314778956       -0.4643848879        0.8757438665    
AX        0.6294383805         1.677234527        0.2652087441    
AX        -1.182381886         1.071291411        0.6209098379    
AX        0.1687871653        -1.554112628         1.114767945    
AX        -1.468571620        0.8592901355E-01   -0.9837519694    
AX       -0.7106995583        0.7102181854        -1.518531601    
AX       -0.8167544648        0.3953172442         1.416518995    
AX        -1.024551079       -0.8738032527        -1.269756002    
AX       -0.2214576247       -0.2811327173        -1.725985640    
AX        0.1675391988        -1.803876835       -0.3148609731E-01
AX        -1.639527363        0.2280657317        0.8940124905E-01
AX        0.9272858364         1.333380382       -0.7424928344    
AX       -0.4595377611         1.746670438        0.8099223159E-01
AX         1.335777924       -0.4198665332        0.2795738490    
AX       -0.7255848239        -1.356821673        0.5524445356    
AX        0.9167165121         1.107185481         1.148973750    
AX        0.8034844371       -0.6623834235         1.244855274    
AX        0.8040517432       -0.4826196309        -1.392367791    
AX        -1.034084733       -0.6524993202       -0.1957737273    
AX       -0.4573157556E-01   -0.9585727292       -0.7882941162    
AX         1.078836075        -1.461449646        0.5309114353    
AX         1.225350714        0.7102985051        0.1186614049    
AX       -0.9569568583        0.9222050548       -0.4413800039    
AX       -0.2748090563       -0.5220670616         1.209059922    
AX        0.3674978629        0.5532760268        -1.264612711    
AX       -0.1242392466         1.056329049        0.8768411984    
AX        0.5943794079       -0.8926412646E-01   -0.4105881572    
AX       -0.4173060453        0.3977765498E-01   -0.7115039569    
AX        0.1186980802        0.8295161777       -0.1716661721    
AX       -0.5618663840        0.1594389500        0.3591599264    
AX        0.4726658497        0.1794734116        0.6460660854    
AX        0.1720960391       -0.7804121527        0.2728641064    
    38
Energy=    -169.403102763531    
AX        0.2954690055        0.3205476537         1.683947858    
AX        0.9786856300        -1.121943598       -0.4950901791    
AX         1.475613808        0.1950732670         1.162924452    
AX       -0.1559715920         1.504320306       -0.9718553442    
AX         1.430462846        0.3452348824       -0.9232290154    
AX       -0.8280259429        -1.685573125       -0.5114613122    
AX        -1.314778949       -0.4643848785        0.8757438588    
AX        0.6294383705         1.677234524        0.2652087222    
AX        -1.182381863         1.071291413        0.6209098362    
AX        0.1687871718        -1.554112628         1.114767905    
AX        -1.468571619        0.8592900502E-01   -0.9837519676    
AX       -0.7106995637        0.7102181943        -1.518531629    
AX       -0.8167544552        0.3953172551         1.416518996    
AX        -1.024551065       -0.8738032600        -1.269755980    
AX       -0.2214576464       -0.2811327134        -1.725985657    
AX        0.1675391851        -1.803876849       -0.3148611764E-01
AX        -1.639527350        0.2280657479        0.8940125258E-01
AX        0.9272858365         1.333380384       -0.7424928464    
AX       -0.4595377722         1.746670423        0.8099223191E-01
AX         1.335777923       -0.4198665391        0.2795738596    
AX       -0.7255848357        -1.356821679        0.5524445324    
AX        0.9167165124         1.107185492         1.148973745    
AX        0.8034844465       -0.6623834316         1.244855300    
AX        0.8040517248       -0.4826196081        -1.392367799    
AX        -1.034084703       -0.6524993037       -0.1957737215    
AX       -0.4573157133E-01   -0.9585727231       -0.7882940909    
AX         1.078836093        -1.461449653        0.5309114263    
AX         1.225350685        0.7102984968        0.1186614099    
AX       -0.9569568632        0.9222050541       -0.4413800195    
AX       -0.2748090622       -0.5220670660         1.209059934    
AX        0.3674978608        0.5532760330        -1.264612710    
AX       -0.1242392335         1.056329060        0.8768412037    
AX        0.5943793990       -0.8926413375E-01   -0.4105881436    
AX       -0.4173060367        0.3977765844E-01   -0.7115039752    
AX        0.1186980852        0.8295161599       -0.1716661725    
AX       -0.5618663727        0.1594389544        0.3591599280    
AX        0.4726658506        0.1794734071        0.6460661033    
AX        0.1720960634       -0.7804121813        0.2728641250    
    38
Energy=    -169.403102763522    
AX        0.2954688744        0.3205477091         1.683947901    
AX        0.9786856023        -1.121943637       -0.4950901954    
AX         1.475613844        0.1950733030         1.162924378    
AX       -0.1559715924         1.504320324       -0.9718553360    
AX         1.430462853        0.3452349014       -0.9232289960    
AX       -0.8280259955        -1.685573158       -0.5114613264    
AX        -1.314778919       -0.4643849234        0.8757438290    
AX        0.6294383785         1.677234532        0.2652087104    
AX        -1.182381836         1.071291443        0.6209098177    
AX        0.1687871824        -1.554112609         1.114767881    
AX        -1.468571588        0.8592896278E-01   -0.9837519539    
AX       -0.7106995775        0.7102182327        -1.518531665    
AX       -0.8167544997        0.3953172494         1.416518967    
AX        -1.024551070       -0.8738033124        -1.269755968    
AX       -0.2214577059       -0.2811326983        -1.725985673    
AX        0.1675391369        -1.803876866       -0.3148612664E-01
AX        -1.639527277        0.2280657451        0.8940126603E-01
AX        0.9272858510         1.333380414       -0.7424928638    
AX       -0.4595377664         1.746670417        0.8099223486E-01
AX         1.335777918       -0.4198665692        0.2795738536    
AX       -0.7255848531        -1.356821749        0.5524445343    
AX        0.9167164981         1.107185504         1.148973755    
AX        0.8034844823       -0.6623834312         1.244855348    
AX        0.8040516736       -0.4826195733        -1.392367809    
AX        -1.034084569       -0.6524992904       -0.1957737178    
AX       -0.4573160023E-01   -0.9585727016       -0.7882940437    
AX         1.078836095        -1.461449671        0.5309114205    
AX         1.225350634        0.7102984785        0.1186614296    
AX       -0.9569568651        0.9222050745       -0.4413800360    
AX       -0.2748090749       -0.5220670737         1.209059969    
AX        0.3674978683        0.5532760664        -1.264612718    
AX       -0.1242392148         1.056329069        0.8768412123    
AX        0.5943793715       -0.8926414806E-01   -0.4105880809    
AX       -0.4173059992        0.3977768130E-01   -0.7115039785    
AX        0.1186981166        0.8295161323       -0.1716661557    
AX       -0.5618663419        0.1594389624        0.3591599203    
AX        0.4726658885        0.1794734205        0.6460660909    
AX        0.1720960791       -0.7804122088        0.2728641246    
    38
Energy=    -169.403102763516    
AX        0.2954693620        0.3205474772         1.683947883    
AX        0.9786858058        -1.121943556       -0.4950901662    
AX         1.475613617        0.1950732090         1.162924701    
AX       -0.1559716591         1.504320280       -0.9718553097    
AX         1.430462897        0.3452348865       -0.9232290285    
AX       -0.8280258967        -1.685572934       -0.5114613088    
AX        -1.314779106       -0.4643846544        0.8757439654    
AX        0.6294382569         1.677234465        0.2652086178    
AX        -1.182381866         1.071291306        0.6209099580    
AX        0.1687871497        -1.554112670         1.114767753    
AX        -1.468571748        0.8592907202E-01   -0.9837520502    
AX       -0.7106995251        0.7102180956        -1.518531649    
AX       -0.8167541652        0.3953173249         1.416519160    
AX        -1.024550955       -0.8738031335        -1.269755920    
AX       -0.2214575048       -0.2811328048        -1.725985679    
AX        0.1675392392        -1.803876869       -0.3148611644E-01
AX        -1.639527566        0.2280658761        0.8940121998E-01
AX        0.9272858053         1.333380319       -0.7424928719    
AX       -0.4595379051         1.746670325        0.8099224410E-01
AX         1.335777959       -0.4198664627        0.2795739361    
AX       -0.7255848760        -1.356821419        0.5524444637    
AX        0.9167165500         1.107185552         1.148973661    
AX        0.8034843565       -0.6623835045         1.244855280    
AX        0.8040518701       -0.4826195942        -1.392367822    
AX        -1.034085092       -0.6524991996       -0.1957736985    
AX       -0.4573138981E-01   -0.9585727501       -0.7882941045    
AX         1.078836205        -1.461449634        0.5309114452    
AX         1.225350679        0.7102984777        0.1186613975    
AX       -0.9569568953        0.9222049453       -0.4413799955    
AX       -0.2748090815       -0.5220670819         1.209059845    
AX        0.3674978233        0.5532759766        -1.264612698    
AX       -0.1242391671         1.056329064        0.8768411740    
AX        0.5943794184       -0.8926415662E-01   -0.4105882330    
AX       -0.4173060533        0.3977754869E-01   -0.7115039977    
AX        0.1186979955        0.8295160699       -0.1716662192    
AX       -0.5618664496        0.1594389499        0.3591599290    
AX        0.4726657484        0.1794733840        0.6460661035    
AX        0.1720961650       -0.7804121784        0.2728641310    
    38
Energy=    -169.403102763500    
AX        0.2954697322        0.3205473220         1.683947894    
AX        0.9786859517        -1.121943483       -0.4950901388    
AX         1.475613470        0.1950731337         1.162924920    
AX       -0.1559716925         1.504320253       -0.9718552990    
AX         1.430462923        0.3452348561       -0.9232290604    
AX       -0.8280258111        -1.685572786       -0.5114612995    
AX        -1.314779242       -0.4643844666        0.8757440703    
AX        0.6294381894         1.677234419        0.2652085781    
AX        -1.182381912         1.071291213        0.6209100521    
AX        0.1687871269        -1.554112728         1.114767685    
AX        -1.468571849        0.8592915228E-01   -0.9837521578    
AX       -0.7106994835        0.7102180188        -1.518531630    
AX       -0.8167539324        0.3953173483         1.416519285    
AX        -1.024550894       -0.8738030197        -1.269755899    
AX       -0.2214573765       -0.2811328907        -1.725985680    
AX        0.1675393347        -1.803876825       -0.3148607396E-01
AX        -1.639527752        0.2280659488        0.8940115393E-01
AX        0.9272857777         1.333380239       -0.7424928780    
AX       -0.4595380001         1.746670286        0.8099225394E-01
AX         1.335777972       -0.4198663653        0.2795739823    
AX       -0.7255848682        -1.356821209        0.5524444233    
AX        0.9167165996         1.107185578         1.148973611    