    38
Energy=    -170.692312506795    
AX        0.3726856738        0.1671513645         1.363425718    
AX        0.8930209684        -1.127805742       -0.6536173750    
AX         1.154917270        0.9410999691         1.168741909    
AX        0.5670021517         1.626085287       -0.8795664347    
AX         1.370690858       -0.3185150122       -0.1422392702    
AX       -0.9169414129        -1.635197482       -0.4418362056    
AX        -1.162405387       -0.4022437753        0.8929338753    
AX       -0.9106272243E-01     1.907437276        0.2086472008E-01
AX       -0.6852986232        0.4504989671         1.441966138    
AX        0.2489807144        -1.623955265         1.058708421    
AX       -0.9021659971        0.7223540436        -1.674467701    
AX       -0.5637912582         1.434675023       -0.9043999460    
AX       -0.3673812320        0.2186916426        0.4427107777    
AX        -1.216366390       -0.6225722231       -0.9514158527    
AX       -0.3613812543       -0.2299940768        -1.634252364    
AX        0.1054117585        -1.508657431       -0.1384360302E-01
AX        -1.439418247        0.1101691261       -0.1115445346E-01
AX         1.061366602        0.6076352468       -0.6561043719    
AX       -0.9018043860         1.102338650        0.1222873001    
AX         1.424887166       -0.1804654663        0.9536187121    
AX       -0.7636500992        -1.409564411        0.6842349326    
AX        0.9367102616         1.421107632        0.1644795640    
AX        0.8083747649       -0.8381800682         1.546283845    
AX        0.7530473682       -0.2841378347        -1.388339157    
AX        -1.641332161       -0.9781875275        0.6577049743E-01
AX       -0.1472644615        -1.043950064       -0.9797319775    
AX         1.157496427        -1.231121890        0.4718259093    
AX         1.754229288        0.6566175497        0.2469542053    
AX        -1.539447756        0.9044624850       -0.7771734105    
AX       -0.2992358412       -0.7043990434         1.462398838    
AX        0.1740687379        0.6701072634        -1.316021511    
AX        0.6526575483E-01     1.131670742        0.8320244651    
AX        0.2917783924       -0.1883356715       -0.4359746166    
AX       -0.6456004082        0.2731857443       -0.6973378529    
AX        0.8904297007E-01    0.8893524040       -0.2593566166    
AX       -0.6059252980       -0.6594259225       -0.6681852009E-01
AX        0.7196463660        0.3642288330        0.3747438565    
AX        0.3018494427       -0.6121603429        0.5696775547    
    38
Energy=    -170.692312506794    
AX        0.3726856712        0.1671513649         1.363425715    
AX        0.8930209691        -1.127805737       -0.6536173650    
AX         1.154917265        0.9410999681         1.168741912    
AX        0.5670021614         1.626085284       -0.8795664452    
AX         1.370690866       -0.3185150152       -0.1422392592    
AX       -0.9169414083        -1.635197481       -0.4418362161    
AX        -1.162405391       -0.4022437787        0.8929338754    
AX       -0.9106272018E-01     1.907437281        0.2086471823E-01
AX       -0.6852986248        0.4504989651         1.441966145    
AX        0.2489807195        -1.623955267         1.058708421    
AX       -0.9021660055        0.7223540501        -1.674467699    
AX       -0.5637912548         1.434675027       -0.9043999438    
AX       -0.3673812291        0.2186916469        0.4427107807    
AX        -1.216366389       -0.6225722269       -0.9514158488    
AX       -0.3613812695       -0.2299940737        -1.634252368    
AX        0.1054117578        -1.508657432       -0.1384360548E-01
AX        -1.439418238        0.1101691257       -0.1115444947E-01
AX         1.061366605        0.6076352438       -0.6561043744    
AX       -0.9018043846         1.102338650        0.1222872998    
AX         1.424887168       -0.1804654612        0.9536187271    
AX       -0.7636500848        -1.409564405        0.6842349276    
AX        0.9367102614         1.421107631        0.1644795664    
AX        0.8083747591       -0.8381800667         1.546283848    
AX        0.7530473414       -0.2841378538        -1.388339170    
AX        -1.641332155       -0.9781875368        0.6577049849E-01
AX       -0.1472644570        -1.043950054       -0.9797319784    
AX         1.157496423        -1.231121898        0.4718259135    
AX         1.754229288        0.6566175458        0.2469542010    
AX        -1.539447755        0.9044624854       -0.7771734123    
AX       -0.2992358419       -0.7043990346         1.462398831    
AX        0.1740687340        0.6701072602        -1.316021508    
AX        0.6526574272E-01     1.131670741        0.8320244679    
AX        0.2917783953       -0.1883356616       -0.4359746157    
AX       -0.6456003999        0.2731857503       -0.6973378539    
AX        0.8904296812E-01    0.8893523967       -0.2593566119    
AX       -0.6059252951       -0.6594259215       -0.6681852459E-01
AX        0.7196463634        0.3642288320        0.3747438540    
AX        0.3018494450       -0.6121603432        0.5696775495    
    38
Energy=    -170.692312506794    
AX        0.3726857213        0.1671513516         1.363425735    
AX        0.8930210015        -1.127805741       -0.6536172975    
AX         1.154917252        0.9411000294         1.168741924    
AX        0.5670021378         1.626085257       -0.8795664657    
AX         1.370690865       -0.3185150239       -0.1422391686    
AX       -0.9169414013        -1.635197429       -0.4418362943    
AX        -1.162405403       -0.4022437809        0.8929338724    
AX       -0.9106272892E-01     1.907437271        0.2086470105E-01
AX       -0.6852985831        0.4504989498         1.441966146    
AX        0.2489806837        -1.623955268         1.058708392    
AX       -0.9021660272        0.7223540888        -1.674467709    
AX       -0.5637912531         1.434675024       -0.9043999432    
AX       -0.3673812035        0.2186916315        0.4427108005    
AX        -1.216366390       -0.6225722356       -0.9514158351    
AX       -0.3613813916       -0.2299940700        -1.634252454    
AX        0.1054117356        -1.508657417       -0.1384362062E-01
AX        -1.439418211        0.1101691315       -0.1115445966E-01
AX         1.061366603        0.6076352236       -0.6561043625    
AX       -0.9018043777         1.102338626        0.1222873045    
AX         1.424887181       -0.1804653971        0.9536187998    
AX       -0.7636501436        -1.409564441        0.6842348985    
AX        0.9367102511         1.421107651        0.1644795512    
AX        0.8083747851       -0.8381801093         1.546283825    
AX        0.7530471670       -0.2841379764        -1.388339193    
AX        -1.641332162       -0.9781875159        0.6577047231E-01
AX       -0.1472644049        -1.043949965       -0.9797319947    
AX         1.157496476        -1.231121927        0.4718259969    
AX         1.754229291        0.6566175676        0.2469542316    
AX        -1.539447742        0.9044624804       -0.7771734121    
AX       -0.2992358213       -0.7043990324         1.462398759    
AX        0.1740687229        0.6701072190        -1.316021518    
AX        0.6526576510E-01     1.131670741        0.8320244754    
AX        0.2917784143       -0.1883356482       -0.4359745824    
AX       -0.6456004046        0.2731857207       -0.6973378792    
AX        0.8904297806E-01    0.8893524089       -0.2593566089    
AX       -0.6059252839       -0.6594259219       -0.6681851153E-01
AX        0.7196463854        0.3642288696        0.3747438923    
AX        0.3018495178       -0.6121603419        0.5696775318    
    38
Energy=    -170.692312506793    
AX        0.3726857595        0.1671513404         1.363425756    
AX        0.8930210273        -1.127805749       -0.6536172567    
AX         1.154917249        0.9411000838         1.168741935    
AX        0.5670021177         1.626085245       -0.8795664746    
AX         1.370690859       -0.3185150265       -0.1422391057    
AX       -0.9169413993        -1.635197389       -0.4418363466    
AX        -1.162405415       -0.4022437784        0.8929338737    
AX       -0.9106273799E-01     1.907437269        0.2086469029E-01
AX       -0.6852985491        0.4504989366         1.441966146    
AX        0.2489806528        -1.623955269         1.058708371    
AX       -0.9021660363        0.7223541153        -1.674467719    
AX       -0.5637912560         1.434675017       -0.9043999482    
AX       -0.3673811814        0.2186916256        0.4427108063    
AX        -1.216366393       -0.6225722418       -0.9514158290    
AX       -0.3613814732       -0.2299940692        -1.634252519    
AX        0.1054117206        -1.508657411       -0.1384363175E-01
AX        -1.439418202        0.1101691332       -0.1115446235E-01
AX         1.061366598        0.6076352062       -0.6561043468    
AX       -0.9018043707         1.102338612        0.1222873064    
AX         1.424887192       -0.1804653544        0.9536188443    
AX       -0.7636501974        -1.409564469        0.6842348835    
AX        0.9367102508         1.421107672        0.1644795380    
AX        0.8083748086       -0.8381801418         1.546283804    
AX        0.7530470566       -0.2841380525        -1.388339207    
AX        -1.641332168       -0.9781874932        0.6577045501E-01
AX       -0.1472643691        -1.043949906       -0.9797320099    
AX         1.157496517        -1.231121950        0.4718260519    
AX         1.754229293        0.6566175924        0.2469542635    
AX        -1.539447736        0.9044624744       -0.7771734100    
AX       -0.2992358075       -0.7043990370         1.462398715    
AX        0.1740687145        0.6701071903        -1.316021524    
AX        0.6526579192E-01     1.131670743        0.8320244768    
AX        0.2917784248       -0.1883356364       -0.4359745482    
AX       -0.6456003865        0.2731857051       -0.6973378943    
AX        0.8904296415E-01    0.8893523876       -0.2593566122    
AX       -0.6059252757       -0.6594259280       -0.6681849774E-01
AX        0.7196463905        0.3642288919        0.3747439061    
AX        0.3018495696       -0.6121603396        0.5696775215    
    38
Energy=    -170.692312506792    
AX        0.3726857979        0.1671513311         1.363425777    
AX        0.8930210410        -1.127805766       -0.6536172467    
AX         1.154917261        0.9411001197         1.168741938    
AX        0.5670020876         1.626085249       -0.8795664646    
AX         1.370690835       -0.3185150248       -0.1422390824    
AX       -0.9169414093        -1.635197364       -0.4418363657    
AX        -1.162405416       -0.4022437716        0.8929338765    
AX       -0.9106275243E-01     1.907437262        0.2086468723E-01
AX       -0.6852985141        0.4504989210         1.441966149    
AX        0.2489806186        -1.623955269         1.058708361    
AX       -0.9021660352        0.7223541124        -1.674467732    
AX       -0.5637912673         1.434675002       -0.9043999589    
AX       -0.3673811736        0.2186916154        0.4427108067    
AX        -1.216366390       -0.6225722399       -0.9514158366    
AX       -0.3613814869       -0.2299940723        -1.634252552    
AX        0.1054117080        -1.508657405       -0.1384363365E-01
AX        -1.439418207        0.1101691390       -0.1115446662E-01
AX         1.061366589        0.6076351999       -0.6561043365    
AX       -0.9018043701         1.102338608        0.1222873047    
AX         1.424887193       -0.1804653382        0.9536188487    
AX       -0.7636502572        -1.409564495        0.6842348802    
AX        0.9367102515         1.421107684        0.1644795232    
AX        0.8083748342       -0.8381801719         1.546283785    
AX        0.7530470443       -0.2841380612        -1.388339188    
AX        -1.641332185       -0.9781874624        0.6577043994E-01
AX       -0.1472643537        -1.043949883       -0.9797320116    
AX         1.157496549        -1.231121955        0.4718260819    
AX         1.754229295        0.6566176107        0.2469542835    
AX        -1.539447738        0.9044624646       -0.7771734090    
AX       -0.2992357958       -0.7043990499         1.462398698    
AX        0.1740687139        0.6701071836        -1.316021536    
AX        0.6526581826E-01     1.131670750        0.8320244743    
AX        0.2917784265       -0.1883356410       -0.4359745247    
AX       -0.6456003868        0.2731856889       -0.6973379045    
AX        0.8904295842E-01    0.8893523847       -0.2593566234    
AX       -0.6059252770       -0.6594259293       -0.6681847839E-01
AX        0.7196463946        0.3642289108        0.3747439160    
AX        0.3018496006       -0.6121603371        0.5696775214    
    38
Energy=    -170.692312506791    
AX        0.3726858069        0.1671513290         1.363425782    
AX        0.8930210419        -1.127805774       -0.6536172525    
AX         1.154917269        0.9411001241         1.168741937    
AX        0.5670020799         1.626085256       -0.8795664574    
AX         1.370690826       -0.3185150241       -0.1422390865    
AX       -0.9169414145        -1.635197362       -0.4418363632    
AX        -1.162405417       -0.4022437687        0.8929338794    
AX       -0.9106275699E-01     1.907437262        0.2086468707E-01
AX       -0.6852985043        0.4504989147         1.441966152    
AX        0.2489806108        -1.623955269         1.058708361    
AX       -0.9021660345        0.7223541041        -1.674467736    
AX       -0.5637912723         1.434674997       -0.9043999647    
AX       -0.3673811761        0.2186916131        0.4427108043    
AX        -1.216366387       -0.6225722383       -0.9514158412    
AX       -0.3613814723       -0.2299940734        -1.634252552    
AX        0.1054117064        -1.508657407       -0.1384363229E-01
AX        -1.439418210        0.1101691417       -0.1115446514E-01
AX         1.061366584        0.6076352008       -0.6561043334    
AX       -0.9018043717         1.102338612        0.1222873018    
AX         1.424887192       -0.1804653411        0.9536188401    
AX       -0.7636502698        -1.409564497        0.6842348838    
AX        0.9367102529         1.421107686        0.1644795190    
AX        0.8083748398       -0.8381801779         1.546283780    
AX        0.7530470658       -0.2841380443        -1.388339176    
AX        -1.641332190       -0.9781874540        0.6577043839E-01
AX       -0.1472643543        -1.043949887       -0.9797320100    
AX         1.157496552        -1.231121956        0.4718260815    
AX         1.754229294        0.6566176132        0.2469542868    
AX        -1.539447742        0.9044624600       -0.7771734097    
AX       -0.2992357951       -0.7043990534         1.462398701    
AX        0.1740687144        0.6701071897        -1.316021539    
AX        0.6526582491E-01     1.131670753        0.8320244721    
AX        0.2917784240       -0.1883356456       -0.4359745207    
AX       -0.6456003868        0.2731856870       -0.6973379058    
AX        0.8904295451E-01    0.8893523846       -0.2593566287    
AX       -0.6059252783       -0.6594259290       -0.6681847224E-01
AX        0.7196463936        0.3642289119        0.3747439153    
AX        0.3018496011       -0.6121603366        0.5696775238    
    38
Energy=    -170.692312506785    
AX        0.3726858119        0.1671513277         1.363425775    
AX        0.8930210425        -1.127805826       -0.6536173160    
AX         1.154917301        0.9411000577         1.168741918    
AX        0.5670020705         1.626085312       -0.8795664129    
AX         1.370690769       -0.3185150374       -0.1422391563    
AX       -0.9169414197        -1.635197383       -0.4418363220    
AX        -1.162405426       -0.4022437678        0.8929338989    
AX       -0.9106276215E-01     1.907437281        0.2086466868E-01
AX       -0.6852984931        0.4504988863         1.441966167    
AX        0.2489806344        -1.623955275         1.058708385    
AX       -0.9021660732        0.7223540264        -1.674467745    
AX       -0.5637912873         1.434674988       -0.9044000014    
AX       -0.3673812215        0.2186915862        0.4427107703    
AX        -1.216366357       -0.6225722413       -0.9514158642    
AX       -0.3613813362       -0.2299940675        -1.634252479    
AX        0.1054117275        -1.508657420       -0.1384361880E-01
AX        -1.439418204        0.1101691596       -0.1115444067E-01
AX         1.061366559        0.6076352241       -0.6561043355    
AX       -0.9018043827         1.102338657        0.1222872611    
AX         1.424887176       -0.1804653905        0.9536187675    
AX       -0.7636502422        -1.409564483        0.6842349211    
AX        0.9367102668         1.421107670        0.1644795396    
AX        0.8083748318       -0.8381801562         1.546283793    
AX        0.7530472259       -0.2841378935        -1.388339091    
AX        -1.641332193       -0.9781874281        0.6577044735E-01
AX       -0.1472643569        -1.043949959       -0.9797320049    
AX         1.157496520        -1.231121936        0.4718260621    
AX         1.754229279        0.6566175500        0.2469542648    
AX        -1.539447769        0.9044624541       -0.7771734208    
AX       -0.2992358070       -0.7043990453         1.462398750    
AX        0.1740687043        0.6701072827        -1.316021556    
AX        0.6526584950E-01     1.131670758        0.8320244686    
AX        0.2917783738       -0.1883356733       -0.4359745204    
AX       -0.6456003747        0.2731857168       -0.6973378991    
AX        0.8904291155E-01    0.8893524097       -0.2593566761    
AX       -0.6059252690       -0.6594258995       -0.6681844818E-01
AX        0.7196463899        0.3642288593        0.3747439133    
AX        0.3018495313       -0.6121603247        0.5696775380    
    38
Energy=    -170.692312506788    
AX        0.3726858142        0.1671513284         1.363425812    
AX        0.8930210583        -1.127805726       -0.6536171809    
AX         1.154917249        0.9411002304         1.168741973    
AX        0.5670020799         1.626085193       -0.8795665017    
AX         1.370690879       -0.3185149983       -0.1422389804    
AX       -0.9169414164        -1.635197334       -0.4418364299    
AX        -1.162405394       -0.4022437604        0.8929338479    
AX       -0.9106275624E-01     1.907437225        0.2086471472E-01
AX       -0.6852985054        0.4504989491         1.441966141    
AX        0.2489805565        -1.623955263         1.058708325    
AX       -0.9021659851        0.7223542103        -1.674467739    
AX       -0.5637912533         1.434674987       -0.9043999184    
AX       -0.3673811225        0.2186915908        0.4427108278    
AX        -1.216366426       -0.6225722298       -0.9514158303    
AX       -0.3613816645       -0.2299940884        -1.634252672    
AX        0.1054116834        -1.508657389       -0.1384365054E-01
AX        -1.439418231        0.1101691217       -0.1115449072E-01
AX         1.061366612        0.6076351531       -0.6561043332    
AX       -0.9018043546         1.102338570        0.1222873562    
AX         1.424887204       -0.1804652699        0.9536189277    
AX       -0.7636503397        -1.409564531        0.6842348372    
AX        0.9367102490         1.421107710        0.1644794738    
AX        0.8083748653       -0.8381802267         1.546283758    
AX        0.7530468538       -0.2841382440        -1.388339290    
AX        -1.641332202       -0.9781874808        0.6577041648E-01
AX       -0.1472643440        -1.043949777       -0.9797320169    
AX         1.157496630        -1.231121980        0.4718261216    
AX         1.754229315        0.6566177110        0.2469543332    
AX        -1.539447714        0.9044624653       -0.7771733873    
AX       -0.2992357767       -0.7043990844         1.462398646    
AX        0.1740687233        0.6701070631        -1.316021521    
AX        0.6526578830E-01     1.131670772        0.8320244727    
AX        0.2917784827       -0.1883356182       -0.4359744952    
AX       -0.6456003861        0.2731856451       -0.6973379154    
AX        0.8904298585E-01    0.8893523522       -0.2593566159    
AX       -0.6059252711       -0.6594259227       -0.6681846907E-01
AX        0.7196464187        0.3642289749        0.3747439451    
AX        0.3018496969       -0.6121603294        0.5696775089    
    38
Energy=    -170.692312506785    
AX        0.3726857976        0.1671513328         1.363425823    
AX        0.8930210741        -1.127805668       -0.6536170983    
AX         1.154917208        0.9411003007         1.168742010    
AX        0.5670020984         1.626085119       -0.8795665623    
AX         1.370690941       -0.3185149787       -0.1422388708    
AX       -0.9169413990        -1.635197317       -0.4418365016    
AX        -1.162405370       -0.4022437644        0.8929338084    
AX       -0.9106274309E-01     1.907437200        0.2086473384E-01
AX       -0.6852985343        0.4504989968         1.441966121    
AX        0.2489805365        -1.623955258         1.058708291    
AX       -0.9021659561        0.7223543221        -1.674467728    
AX       -0.5637912178         1.434674991       -0.9043998589    
AX       -0.3673810727        0.2186915558        0.4427108469    
AX        -1.216366469       -0.6225722322       -0.9514158101    
AX       -0.3613818785       -0.2299940962        -1.634252773    
AX        0.1054116691        -1.508657362       -0.1384367069E-01
AX        -1.439418238        0.1101690978       -0.1115451513E-01
AX         1.061366650        0.6076351099       -0.6561043469    
AX       -0.9018043330         1.102338521        0.1222874057    
AX         1.424887216       -0.1804651952        0.9536190294    
AX       -0.7636503628        -1.409564558        0.6842347842    
AX        0.9367102456         1.421107729        0.1644794560    
AX        0.8083748711       -0.8381802500         1.546283754    
AX        0.7530465951       -0.2841384717        -1.388339418    
AX        -1.641332200       -0.9781875222        0.6577039766E-01
AX       -0.1472643229        -1.043949666       -0.9797320298    
AX         1.157496696        -1.231121995        0.4718261738    
AX         1.754229331        0.6566177727        0.2469543583    
AX        -1.539447680        0.9044624894       -0.7771733680    
AX       -0.2992357586       -0.7043990980         1.462398581    
AX        0.1740687229        0.6701069427        -1.316021496    
AX        0.6526574138E-01     1.131670782        0.8320244878    
AX        0.2917785296       -0.1883355777       -0.4359744769    
AX       -0.6456003699        0.2731856257       -0.6973379181    
AX        0.8904300028E-01    0.8893523306       -0.2593566153    
AX       -0.6059252525       -0.6594259004       -0.6681847334E-01
AX        0.7196464598        0.3642290068        0.3747439869    
AX        0.3018497760       -0.6121603147        0.5696774836    
    38
Energy=    -170.692312506782    
AX        0.3726857721        0.1671513389         1.363425818    
AX        0.8930210891        -1.127805619       -0.6536170297    
AX         1.154917162        0.9411003272         1.168742035    
AX        0.5670021219         1.626085055       -0.8795666139    
AX         1.370690989       -0.3185149752       -0.1422387861    
AX       -0.9169413663        -1.635197303       -0.4418365592    
AX        -1.162405359       -0.4022437785        0.8929337813    
AX       -0.9106272311E-01     1.907437193        0.2086473546E-01
AX       -0.6852985728        0.4504990360         1.441966094    
AX        0.2489805499        -1.623955254         1.058708269    
AX       -0.9021659534        0.7223544052        -1.674467710    
AX       -0.5637911858         1.434675008       -0.9043998155    
AX       -0.3673810364        0.2186915460        0.4427108644    
AX        -1.216366500       -0.6225722419       -0.9514157841    
AX       -0.3613820539       -0.2299940930        -1.634252836    
AX        0.1054116645        -1.508657336       -0.1384368886E-01
AX        -1.439418231        0.1101690790       -0.1115453669E-01
AX         1.061366679        0.6076350824       -0.6561043611    
AX       -0.9018043136         1.102338478        0.1222874351    
AX         1.424887229       -0.1804651391        0.9536191171    
AX       -0.7636503485        -1.409564575        0.6842347424    
AX        0.9367102395         1.421107737        0.1644794662    
AX        0.8083748617       -0.8381802459         1.546283762    
AX        0.7530463633       -0.2841386573        -1.388339515    
AX        -1.641332182       -0.9781875531        0.6577038638E-01
AX       -0.1472642922        -1.043949583       -0.9797320471    
AX         1.157496733        -1.231122000        0.4718262265    
AX         1.754229340        0.6566177894        0.2469543658    
AX        -1.539447650        0.9044625189       -0.7771733547    
AX       -0.2992357447       -0.7043990942         1.462398524    
AX        0.1740687161        0.6701068632        -1.316021482    
AX        0.6526571506E-01     1.131670776        0.8320245044    
AX        0.2917785599       -0.1883355404       -0.4359744692    
AX       -0.6456003597        0.2731856205       -0.6973379197    
AX        0.8904301641E-01    0.8893523186       -0.2593565995    
AX       -0.6059252386       -0.6594258949       -0.6681849110E-01
AX        0.7196464831        0.3642290218        0.3747440131    
AX        0.3018498259       -0.6121603107        0.5696774599    
    38
Energy=    -170.692312506780    
AX        0.3726857586        0.1671513430         1.363425811    
AX        0.8930210990        -1.127805596       -0.6536169895    
AX         1.154917135        0.9411003282         1.168742047    
AX        0.5670021343         1.626085021       -0.8795666443    
AX         1.370691009       -0.3185149779       -0.1422387412    
AX       -0.9169413429        -1.635197294       -0.4418365910    
AX        -1.162405350       -0.4022437908        0.8929337640    
AX       -0.9106271182E-01     1.907437192        0.2086473371E-01
AX       -0.6852985968        0.4504990585         1.441966075    
AX        0.2489805636        -1.623955252         1.058708257    
AX       -0.9021659610        0.7223544458        -1.674467698    
AX       -0.5637911669         1.434675018       -0.9043997914    
AX       -0.3673810141        0.2186915522        0.4427108758    
AX        -1.216366514       -0.6225722500       -0.9514157690    
AX       -0.3613821493       -0.2299940894        -1.634252864    
AX        0.1054116620        -1.508657314       -0.1384369762E-01
AX        -1.439418227        0.1101690704       -0.1115455000E-01
AX         1.061366697        0.6076350702       -0.6561043758    
AX       -0.9018042996         1.102338451        0.1222874481    
AX         1.424887235       -0.1804651079        0.9536191652    
AX       -0.7636503360        -1.409564588        0.6842347162    
AX        0.9367102372         1.421107739        0.1644794812    
AX        0.8083748548       -0.8381802392         1.546283770    
AX        0.7530462303       -0.2841387609        -1.388339560    
AX        -1.641332170       -0.9781875663        0.6577037627E-01
AX       -0.1472642705        -1.043949538       -0.9797320549    
AX         1.157496756        -1.231121994        0.4718262673    
AX         1.754229345        0.6566177841        0.2469543608    
AX        -1.539447634        0.9044625415       -0.7771733483    
AX       -0.2992357344       -0.7043990894         1.462398489    
AX        0.1740687089        0.6701068252        -1.316021478    
AX        0.6526570113E-01     1.131670767        0.8320245164    
AX        0.2917785699       -0.1883355189       -0.4359744685    
AX       -0.6456003518        0.2731856245       -0.6973379193    
AX        0.8904301651E-01    0.8893523161       -0.2593565925    
AX       -0.6059252351       -0.6594258987       -0.6681850758E-01
AX        0.7196464992        0.3642290263        0.3747440397    
AX        0.3018498542       -0.6121603087        0.5696774468    
    38
Energy=    -170.692312506773    
AX        0.3726857663        0.1671513443         1.363425801    
AX        0.8930210990        -1.127805597       -0.6536169819    
AX         1.154917133        0.9411003121         1.168742042    
AX        0.5670021304         1.626085022       -0.8795666537    
AX         1.370691003       -0.3185149834       -0.1422387445    
AX       -0.9169413405        -1.635197290       -0.4418365895    
AX        -1.162405342       -0.4022437973        0.8929337560    
AX       -0.9106271543E-01     1.907437186        0.2086473495E-01
AX       -0.6852985959        0.4504990619         1.441966069    
AX        0.2489805621        -1.623955248         1.058708256    
AX       -0.9021659694        0.7223544394        -1.674467695    
AX       -0.5637911629         1.434675014       -0.9043997831    
AX       -0.3673810028        0.2186915911        0.4427108882    
AX        -1.216366509       -0.6225722536       -0.9514157665    
AX       -0.3613821455       -0.2299940916        -1.634252857    
AX        0.1054116565        -1.508657297       -0.1384369281E-01
AX        -1.439418230        0.1101690738       -0.1115455307E-01
AX         1.061366706        0.6076350760       -0.6561043926    
AX       -0.9018042913         1.102338436        0.1222874490    
AX         1.424887229       -0.1804651024        0.9536191641    
AX       -0.7636503393        -1.409564596        0.6842347052    
AX        0.9367102389         1.421107739        0.1644794895    