          45
Energy of minimum      1=     0.000000000     first found at step       58 after                19519 function calls
HH31       -2.7958749515       -2.5952609373       -3.1617024780
CH3        -2.3553734829       -1.6074586870       -3.0298850959
HH32       -2.8767225384       -0.8909619190       -3.6642361483
HH33       -1.3034996188       -1.6428598832       -3.3117834832
C          -2.4752980648       -1.1926783084       -1.5756110909
O          -3.0840753827       -0.1713367254       -1.2600162351
N          -1.8756218687       -1.9717779372       -0.6777439218
H          -1.3653378498       -2.7841195874       -1.0007699408
CA         -1.9194014880       -1.7495873300        0.7804442527
HA         -2.9577173372       -1.5920989268        1.0770366176
CB         -1.4227026589       -3.0116275014        1.5062475493
HB2        -2.1205518604       -3.8266036126        1.3037427276
HB3        -1.4164376808       -2.8285420945        2.5826478260
OG         -0.1179257552       -3.3969648598        1.0748200831
HG          0.1535279851       -4.2070896206        1.5603602046
C          -1.1390089584       -0.5051920100        1.2564223742
O          -1.3319274103       -0.0418202245        2.3847698486
N          -0.3024535386        0.0851609808        0.3911314418
H          -0.1715021188       -0.3630088738       -0.5056591692
CA          0.4140199751        1.3478835264        0.6389335887
HA          0.6921760096        1.3948259273        1.6933598205
CB          1.7107046384        1.3588870567       -0.1962099670
HB2         2.2092054863        2.3200571425       -0.0571638553
HB3         1.4615125619        1.2548603029       -1.2541874564
CG          2.6900723026        0.2452131390        0.2127286677
HG2         2.9193423094        0.3420522300        1.2751790161
HG3         2.2337024840       -0.7302392408        0.0385381787
CD          3.9922832225        0.3349261486       -0.5940254254
HD2         3.7637203723        0.2392421630       -1.6575117846
HD3         4.4600740368        1.3054945081       -0.4163663071
CE          4.9522676659       -0.7854337856       -0.1696085757
HE2         5.1531984506       -0.6905282801        0.9019177561
HE3         4.4627382574       -1.7503128067       -0.3337035741
NZ          6.2312897450       -0.7345030282       -0.9276847910
HZ1         6.7113261627        0.1422848170       -0.7770290976
HZ2         6.0727173001       -0.8381940216       -1.9206424453
HZ3         6.8524406040       -1.4776915014       -0.6372373520
C          -0.4435336473        2.6086866450        0.3688601011
O          -0.0123466001        3.7249039932        0.6786410262
N          -1.6491207318        2.4501634738       -0.1946020386
H          -1.9361710535        1.5049288906       -0.4160556319
CH3        -2.5777363963        3.5314691380       -0.5113304366
HH31       -2.1139829200        4.2291867690       -1.2108241475
HH32       -3.4799789943        3.1203789359       -0.9668618857
HH33       -2.8526762021        4.0663608557        0.3994117340
          45
Energy of minimum      2=    0.5435495577E-01 first found at step       53 after                17731 function calls
HH31        1.4855606976        1.4724332867       -3.3939057075
CH3         2.4916463683        1.1871832977       -3.0879828914
HH32        2.8445860069        0.3715728246       -3.7186791078
HH33        3.1566662309        2.0432886579       -3.1974936325
C           2.4726731869        0.7465114473       -1.6364500791
O           2.8221038551       -0.3897679157       -1.3199973849
N           2.0474917150        1.6396047880       -0.7444396021
H           1.8166134069        2.5691370327       -1.0709187161
CA          2.0657201219        1.4348301857        0.7181042358
HA          3.0771700746        1.1600860013        1.0203571837
CB          1.7074033140        2.7505675703        1.4298561344
HB2         0.6674125070        3.0009670013        1.2096373972
HB3         1.8075113473        2.6101150975        2.5081206608
OG          2.5510276188        3.8231161258        1.0124677960
HG          2.3027955438        4.6372001662        1.5044871970
C           1.1303379645        0.3133420177        1.2190868820
O           1.2762716256       -0.1606044463        2.3492678065
N           0.1918736919       -0.1502805457        0.3815870791
H           0.1164910561        0.2914697692       -0.5253928258
CA         -0.7046178930       -1.2836576174        0.6681217515
HA         -0.9645230696       -1.2695060223        1.7282150247
CB         -2.0048933727       -1.1094807205       -0.1426070456
HB2        -2.6402220383       -1.9817977104        0.0221324062
HB3        -1.7648550491       -1.0597779324       -1.2066233812
CG         -2.7957470969        0.1453818242        0.2650574434
HG2        -2.2005788378        1.0377203700        0.0660690279
HG3        -3.0151050516        0.0993395591        1.3329903864
CD         -4.1129107112        0.2422651425       -0.5162984617
HD2        -3.8943607002        0.2879752677       -1.5852140819
HD3        -4.7174817894       -0.6443800820       -0.3143698891
CE         -4.8853222245        1.4998166298       -0.0931827190
HE2        -4.2606442564        2.3781350166       -0.2826957285
HE3        -5.0758938295        1.4510883600        0.9833444709
NZ         -6.1731493813        1.6305324333       -0.8264401265
HZ1        -6.6699850343        2.4624160535       -0.5372153719
HZ2        -6.0216613214        1.6953264901       -1.8237984672
HZ3        -6.7756865989        0.8378014776       -0.6520246662
C          -0.0583810880       -2.6664891666        0.4081237046
O          -0.6455633100       -3.6959636575        0.7591268266
N           1.1393320505       -2.7078873094       -0.1911421718
H           1.5608078056       -1.8229588921       -0.4480631345
CH3         1.8815515530       -3.9259596733       -0.5026968452
HH31        1.2956096810       -4.5599554246       -1.1704348058
HH32        2.0990957782       -4.4757045143        0.4146860465
HH33        2.8217079488       -3.6686256592       -0.9929974854
          45
Energy of minimum      3=    0.1373390987     first found at step     1615 after               594739 function calls
HH31        3.3068200777       -0.9876467362        3.4279294333
CH3         2.7895444321       -0.1192999205        3.0208970489
HH32        3.2462317342        0.7897767365        3.4116639802
HH33        1.7416090764       -0.1545095657        3.3172746512
C           2.8885155362       -0.1382504179        1.5070009138
O           3.4189705154        0.7900673226        0.8997215337
N           2.3586026849       -1.1893425036        0.8855267291
H           1.9224747647       -1.9138502658        1.4423616296
CA          2.3981678885       -1.4144720371       -0.5730155214
HA          3.3917594628       -1.1529417160       -0.9405729678
CB          2.1848959219       -2.9120861434       -0.8552050367
HB2         2.1747707223       -3.0796180664       -1.9340265212
HB3         3.0248884473       -3.4677724162       -0.4335080532
OG          0.9710742716       -3.3950006576       -0.2793929852
HG          0.8800004994       -4.3523676257       -0.4813385216
C           1.3987282564       -0.5568547818       -1.3824619062
O           1.4220696420       -0.5715742811       -2.6176774767
N           0.5437216464        0.2206475631       -0.7023553038
H           0.5647551411        0.1364292941        0.3048916335
CA         -0.5058740803        1.0725856227       -1.2946889134
HA         -0.2309881222        1.2825990096       -2.3296762894
CB         -1.8300249621        0.2771521544       -1.3263021656
HB2        -1.6670174162       -0.6470899627       -1.8838415506
HB3        -2.5775589365        0.8594073402       -1.8680799172
CG         -2.3837073581       -0.0748481012        0.0665591112
HG2        -1.6605016089       -0.6897799688        0.6040419575
HG3        -2.5582643552        0.8404427200        0.6336085348
CD         -3.7033353645       -0.8492346922       -0.0505536187
HD2        -3.5317751561       -1.7684294912       -0.6145695948
HD3        -4.4341640582       -0.2366136030       -0.5825552277
CE         -4.2390326889       -1.1941574203        1.3463080366
HE2        -3.4888640239       -1.7907975421        1.8744250365
HE3        -4.3842093896       -0.2660806254        1.9077735226
NZ         -5.5212527797       -1.9454631295        1.2765694789
HZ1        -5.4082606201       -2.8169370958        0.7768805784
HZ2        -6.2364861718       -1.4062642873        0.8078966166
HZ3        -5.8613237451       -2.1654013172        2.2031530394
C          -0.6376739071        2.4673038029       -0.6319318067
O          -1.6160283340        3.1840648641       -0.8693088564
N           0.3341924900        2.8561598963        0.2044070316
H           1.1259295150        2.2378863523        0.3116899113
CH3         0.3571387297        4.1221828013        0.9335479797
HH31        1.2566730527        4.1790919145        1.5486071409
HH32        0.3553465686        4.9577899862        0.2313468096
HH33       -0.5188186857        4.1965934341        1.5804584678
          45
Energy of minimum      4=    0.2035045838     first found at step     1231 after               450277 function calls
HH31        0.4016171122        3.0801724765       -1.7539373544
CH3         1.1096764820        2.5416503425       -2.3830881107
HH32        0.6240747826        2.2618034316       -3.3176889170
HH33        1.9622353997        3.1855882861       -2.5968420724
C           1.5872123734        1.2983197740       -1.6569241955
O           1.4022159485        0.1806297934       -2.1363529151
N           2.1900790546        1.4837071576       -0.4835985997
H           2.3481628621        2.4332530631       -0.1712254882
CA          2.8151532855        0.4095950364        0.3147719189
HA          3.5410567301       -0.1132837352       -0.3094076196
CB          3.5767541200        1.0222218942        1.5024205973
HB2         2.8584781556        1.4781641512        2.1872060207
HB3         4.1041680551        0.2276908860        2.0343699982
OG          4.5147784983        2.0088640609        1.0748621261
HG          4.9917485234        2.3597614051        1.8596335146
C           1.8262160260       -0.6547531945        0.8369380010
O           2.2375897368       -1.7524414438        1.2227156390
N           0.5170950994       -0.3667696483        0.8145093530
H           0.2498619554        0.5589680538        0.5077670400
CA         -0.5578307507       -1.3147492443        1.1528172050
HA         -0.2360328048       -1.8950485990        2.0196017066
CB         -1.8100558960       -0.5192025923        1.5756850951
HB2        -1.5382350497        0.1498355539        2.3945560163
HB3        -2.5550953099       -1.2207635197        1.9557670593
CG         -2.4423824835        0.3072440724        0.4403482311
HG2        -2.7413024553       -0.3563970855       -0.3721391903
HG3        -1.7151946192        1.0252112260        0.0587120029
CD         -3.6774571556        1.0678721106        0.9414303698
HD2        -4.4106219724        0.3529802494        1.3208746183
HD3        -3.3830111078        1.7384007947        1.7515460277
CE         -4.2972163410        1.8828802825       -0.2028781181
HE2        -4.5657776971        1.2017362906       -1.0163375209
HE3        -3.5470353373        2.5817259664       -0.5857371742
NZ         -5.5023009599        2.6331565806        0.2427311931
HZ1        -5.8993185857        3.1644717084       -0.5206312673
HZ2        -5.2761172709        3.2831794283        0.9832020626
HZ3        -6.2182613280        2.0064695861        0.5843001109
C          -0.8656085465       -2.3515161345        0.0448522885
O          -1.6127838956       -3.3055897248        0.2863401822
N          -0.3029665393       -2.1811671623       -1.1589755052
H           0.2953171352       -1.3725265503       -1.2825731530
CH3        -0.4918433160       -3.0637766759       -2.3062877622
HH31       -0.1438780983       -4.0696360032       -2.0648580388
HH32        0.0767213973       -2.6868992171       -3.1578691545
HH33       -1.5486166134       -3.1047736557       -2.5758928531
          45
Energy of minimum      5=    0.2109998293     first found at step     1110 after               405245 function calls
HH31       -0.0983817301       -2.8471535210       -2.0026548079
CH3        -0.8714828348       -2.4014548784       -2.6278314301
HH32       -0.4210456043       -2.0172123437       -3.5427533418
HH33       -1.6114319623       -3.1605375770       -2.8798032049
C          -1.5457061678       -1.2729580513       -1.8708779310
O          -1.5221014043       -0.1217913000       -2.3038775051
N          -2.1334130133       -1.5896720828       -0.7187206343
H          -2.0965222640       -2.5499640250       -0.4004312657
CA         -2.8651907826       -0.6326571201        0.1339486234
HA         -3.5843342640       -0.0944015392       -0.4857888765
CB         -3.6647108061       -1.4010113009        1.1999911577
HB2        -4.4275154699       -1.9999286043        0.6983684352
HB3        -4.1684588713       -0.6874007014        1.8551589293
OG         -2.8306052131       -2.2618296652        1.9746978139
HG         -3.3827183356       -2.7292593144        2.6400919667
C          -1.9705481215        0.4400624054        0.7919708702
O          -2.4692618348        1.4681600411        1.2600154482
N          -0.6434105039        0.2514471984        0.7754895696
H          -0.3068160402       -0.6286277217        0.4100397544
CA          0.3544812847        1.2426590513        1.2102062205
HA         -0.0207078463        1.7250406952        2.1146418223
CB          1.6559681135        0.5066801097        1.5906772021
HB2         2.3442492262        1.2266434981        2.0374778580
HB3         1.4236636596       -0.2431102469        2.3495639152
CG          2.3587809016       -0.1801576023        0.4048041974
HG2         2.6176064090        0.5653109010       -0.3483348697
HG3         1.6896709434       -0.9158032874       -0.0436804042
CD          3.6401690300       -0.8880516460        0.8652418572
HD2         3.3862292083       -1.6398114370        1.6155527778
HD3         4.3155235516       -0.1549727661        1.3114165594
CE          4.3297139366       -1.5637967781       -0.3287812185
HE2         3.6363596090       -2.2820022109       -0.7773099474
HE3         4.5570248422       -0.8030917024       -1.0820840795
NZ          5.5811084281       -2.2589628776        0.0767965976
HZ1         6.0238635510       -2.6986328990       -0.7190078992
HZ2         5.3946221171       -2.9799108982        0.7605001536
HZ3         6.2460206844       -1.6116909204        0.4779730806
C           0.5998260678        2.3858488609        0.1949807710
O           1.2786062185        3.3647330358        0.5234940892
N           0.0598870876        2.2776772846       -1.0266042449
H          -0.4829280376        1.4455254599       -1.2226588431
CH3         0.1985814844        3.2620303565       -2.0957106891
HH31        1.2524623180        3.3952128787       -2.3462049382
HH32       -0.3359630852        2.9195022949       -2.9831002524
HH33       -0.2183674990        4.2193466078       -1.7781698911
          45
Energy of minimum      6=    0.3025569549     first found at step     1785 after               659736 function calls
HH31       -4.1318948134       -3.4086531183        1.8610409815
CH3        -4.7691021906       -2.8794618005        1.1531033604
HH32       -5.4324918211       -3.5909039236        0.6618228516
HH33       -5.3644017459       -2.1404333663        1.6885566250
C          -3.9045339115       -2.1794464946        0.1200308061
O          -4.0111974067       -2.4515778585       -1.0749968804
N          -3.0373636384       -1.2788985237        0.5787048877
H          -3.0020890674       -1.1170219600        1.5775005008
CA         -2.1375726606       -0.4653512833       -0.2568275185
HA         -1.6856724182       -1.1012923170       -1.0196318588
CB         -2.9374104957        0.6392574074       -0.9721946713
HB2        -3.4174555825        1.2740439971       -0.2247150120
HB3        -3.7150953816        0.1785853653       -1.5836981759
OG         -2.1023134109        1.4397361863       -1.8058993354
HG         -2.6677160301        2.0425957309       -2.3382246240
C          -1.0024342334        0.1619765997        0.5749060332
O          -1.1855206004        0.5059747216        1.7481118431
N           0.1740326487        0.3450361069       -0.0398072428
H           0.2616247448        0.0460842825       -1.0028298570
CA          1.3227094835        1.0495786928        0.5567508044
HA          1.3539486682        0.8354201534        1.6266608408
CB          2.6235827568        0.5121793761       -0.0737125700
HB2         2.5899456365        0.6584300656       -1.1552053601
HB3         3.4663703689        1.0830991961        0.3205438501
CG          2.8632507991       -0.9751851225        0.2368453629
HG2         2.8769747549       -1.1175954075        1.3186318581
HG3         2.0567324147       -1.5751468331       -0.1869650999
CD          4.1984165017       -1.4511410631       -0.3510960218
HD2         4.1858412696       -1.3083332815       -1.4336235263
HD3         5.0112495138       -0.8603560018        0.0763159087
CE          4.4162730148       -2.9363502114       -0.0289855593
HE2         3.5846458396       -3.5133138254       -0.4450122710
HE3         4.4034637539       -3.0671787942        1.0574292163
NZ          5.7031187226       -3.4388678859       -0.5809632093
HZ1         5.8323173475       -4.4173178197       -0.3608555487
HZ2         6.4889010686       -2.9321379844       -0.1967291703
HZ3         5.7314869957       -3.3448151263       -1.5870462509
C           1.2282091797        2.5903742903        0.4344379319
O           2.0507355307        3.3071702894        1.0153620259
N           0.2367199468        3.1087888074       -0.3031688441
H          -0.3995967400        2.4555290361       -0.7436603898
CH3         0.0032102321        4.5345524068       -0.5151437097
HH31       -0.1760977467        5.0296510866        0.4408422322
HH32       -0.8690969410        4.6743486510       -1.1554232666
HH33        0.8719093909        4.9877077576       -0.9959828968
          45
Energy of minimum      7=    0.4329741911     first found at step     1103 after               402767 function calls
HH31       -3.3639715968       -3.0767785333       -2.2710901664
CH3        -3.1344912593       -2.0117790472       -2.2543929008
HH32       -4.0263153520       -1.4450115713       -2.5208453127
HH33       -2.3440496538       -1.8034757677       -2.9747939488
C          -2.6686908750       -1.6188465024       -0.8651747444
O          -3.2714694767       -0.7646362896       -0.2168325610
N          -1.5761451845       -2.2248775121       -0.4047610578
H          -1.1070373337       -2.8990176464       -0.9965058023
CA         -1.0012425242       -2.0015108533        0.9358187230
HA         -1.7994009598       -2.0845712858        1.6753123663
CB          0.0251211927       -3.1054610783        1.2421138351
HB2         0.4691882830       -2.9220650779        2.2225696756
HB3        -0.4957349713       -4.0644016827        1.2782917642
OG          1.0516686405       -3.1682896518        0.2524809867
HG          1.6652693961       -3.9028565077        0.4744637239
C          -0.3706971067       -0.6059810119        1.1307945358
O          -0.1128981908       -0.1900453668        2.2644775507
N          -0.1676324400        0.1512674607        0.0436376113
H          -0.3782422145       -0.2630689729       -0.8545291417
CA          0.3274979201        1.5376804639        0.0589847941
HA          0.9939938110        1.6662775945        0.9128015157
CB          1.1369218588        1.7941618065       -1.2310242968
HB2         1.5574292367        2.8004292277       -1.1855028193
HB3         0.4561092472        1.7622870034       -2.0837959758
CG          2.2884969533        0.8064681799       -1.5019248656
HG2         1.8823498200       -0.1927157996       -1.6654628092
HG3         2.7867074921        1.1159033222       -2.4220075281
CD          3.3297108948        0.7492124969       -0.3738055644
HD2         3.7145125894        1.7539812351       -0.1877179312
HD3         2.8636980862        0.3674806542        0.5361739048
CE          4.4828823266       -0.1803830937       -0.7773142593
HE2         4.0773796322       -1.1768081460       -0.9785187647
HE3         4.9288612912        0.1926052170       -1.7044520820
NZ          5.5234037930       -0.2648941060        0.2826663304
HZ1         5.9257244198        0.6426246612        0.4739873847
HZ2         5.1393908168       -0.6260436987        1.1452401671
HZ3         6.2753552802       -0.8796670637        0.0010817594
C          -0.7912795565        2.5918146095        0.2440357471
O          -0.4976531284        3.7843836575        0.3822362481
N          -2.0640208767        2.1725079202        0.2546555266
H          -2.2246774785        1.1796910620        0.1405603775
CH3        -3.2317756120        3.0335997721        0.4188509118
HH31       -3.2657706318        3.7736901301       -0.3825851943
HH32       -4.1411557956        2.4316330961        0.3838038982
HH33       -3.1842272462        3.5481037844        1.3801995787
          45
Energy of minimum      8=    0.5734971974     first found at step     2303 after               863481 function calls
HH31        6.3233352445        0.2934983930        0.7718909795
CH3         5.8872231940        1.2806395590        0.9222605625
HH32        6.5851373017        2.0412416230        0.5729872035
HH33        5.6921017940        1.4291658864        1.9839213938
C           4.5840286677        1.3802263886        0.1499468956
O           4.4357810156        2.2352063613       -0.7221465268
N           3.6300225776        0.5093754760        0.4738193091
H           3.8245241344       -0.1585882529        1.2094246117
CA          2.3124987624        0.4133950029       -0.1776767265
HA          1.9058520061        1.4169985578       -0.3116006713
CB          2.4580552012       -0.2300277618       -1.5692861940
HB2         3.1310901947        0.3782326084       -2.1759022866
HB3         2.8963628692       -1.2239652241       -1.4593107652
OG          1.2012495429       -0.3395549141       -2.2339781168
HG          1.3552221706       -0.6293407922       -3.1606801199
C           1.3154104286       -0.3966355498        0.6728845085
O           1.6934513323       -1.3466555184        1.3676253390
N           0.0235924223       -0.0480487417        0.5962527087
H          -0.2242164375        0.7397477595        0.0118555194
CA         -1.0769219378       -0.8011466863        1.2228673982
HA         -0.7340089533       -1.1555940223        2.1967147563
CB         -2.2596746399        0.1556264577        1.4793277104
HB2        -3.0102519008       -0.3716584885        2.0711929368
HB3        -1.9031631561        0.9990709364        2.0738794215
CG         -2.9265952394        0.6900370525        0.1984813363
HG2        -2.1931623869        1.2340112706       -0.3980935770
HG3        -3.3096777400       -0.1447619391       -0.3899861527
CD         -4.0884797425        1.6325529601        0.5404115924
HD2        -3.7096138601        2.4732173953        1.1254754477
HD3        -4.8281609648        1.0912578147        1.1340531453
CE         -4.7427562554        2.1539134959       -0.7470917339
HE2        -3.9863497567        2.6758799855       -1.3413002639
HE3        -5.0981389978        1.3006870472       -1.3330963436
NZ         -5.8768464346        3.0724476528       -0.4579514910
HZ1        -6.2972561644        3.4072747413       -1.3145237108
HZ2        -6.5982846499        2.6068462323        0.0755949233
HZ3        -5.5697004707        3.8791710773        0.0681488927
C          -1.4987012391       -2.0691874159        0.4407932809
O          -2.3044962214       -2.8619598482        0.9398726631
N          -0.9664651874       -2.2700600306       -0.7723208385
H          -0.3127840120       -1.5741826748       -1.1102696865
CH3        -1.2563179002       -3.4089971039       -1.6386653650
HH31       -0.9785775670       -4.3385195696       -1.1386417304
HH32       -2.3209676539       -3.4348046134       -1.8774908232
HH33       -0.6873569988       -3.3217668817       -2.5655417961
          45
Energy of minimum      9=    0.6666743784     first found at step     3816 after              1447679 function calls
HH31       -4.0828108624        0.5777324318        3.0133660381
CH3        -3.6461113479       -0.3214267321        2.5797708144
HH32       -4.2989715183       -1.1715999992        2.7760229104
HH33       -2.6714715069       -0.5015192817        3.0323836840
C          -3.4805614868       -0.1308463339        1.0832116192
O          -4.0384221314       -0.8851474474        0.2876091372
N          -2.7052070288        0.8775128513        0.6914485896
H          -2.2806641084        1.4676239871        1.3957057852
CA         -2.4352272423        1.2321272204       -0.7150074402
HA         -3.3277855625        1.0333715899       -1.3103915364
CB         -2.1518926570        2.7418334844       -0.8048800093
HB2        -3.0547311347        3.2824571917       -0.5136615450
HB3        -1.9170432152        3.0047837361       -1.8381608370
OG         -1.0773297935        3.1340983025        0.0495483989
HG         -0.9447173051        4.1044531553       -0.0289775038
C          -1.2891930221        0.4236007009       -1.3642647707
O          -1.0539790654        0.5369940600       -2.5721833989
N          -0.5917593158       -0.4161264588       -0.5859001985
H          -0.8668034072       -0.4729880474        0.3856029605
CA          0.5727619410       -1.2206769683       -0.9967357214
HA          0.3559412461       -1.6494665430       -1.9772349554
CB          1.8144743986       -0.3100171971       -1.1486646522
HB2         2.6470485600       -0.9088231029       -1.5224170299
HB3         1.6025873233        0.4548495715       -1.8974465188
CG          2.2492436303        0.3830023676        0.1558856032
HG2         2.5020632039       -0.3700411101        0.9034287017
HG3         1.4313935363        0.9969528423        0.5357292585
CD          3.4719454770        1.2791682234       -0.0818791885
HD2         4.2985199386        0.6701521300       -0.4537826790
HD3         3.2230379553        2.0359063623       -0.8287653445
CE          3.8845677926        1.9650844095        1.2281927361
HE2         3.0397768999        2.5538150213        1.5988551808
HE3         4.1090926107        1.1961876341        1.9738440467
NZ          5.0686686005        2.8463344328        1.0420044982
HZ1         4.8791192636        3.5770180610        0.3696227728
HZ2         5.3278710225        3.2908050479        1.9125489594
HZ3         5.8685965914        2.3209263970        0.7164141493
C           0.8375373324       -2.4132623860       -0.0488323003
O           0.3749491713       -2.4268953492        1.0983191639
N           1.5932743654       -3.4102933036       -0.5242991727
H           1.9404720991       -3.3262621135       -1.4696095445
CH3         1.9580839549       -4.6098296896        0.2269470094
HH31        2.5773237480       -5.2612489378       -0.3918608846
HH32        2.5194854499       -4.3339724870        1.1214376224
HH33        1.0589639158       -5.1534800022        0.5226050197
          45
Energy of minimum     10=    0.7110607618     first found at step       18 after                 6265 function calls
HH31        2.6431812744        2.2036119645       -3.3974441634
CH3         2.0162631925        1.3342769130       -3.2014585017
HH32        2.2277631224        0.5614780168       -3.9401273387
HH33        0.9683191849        1.6244532123       -3.2703963297
C           2.3049061702        0.8093611189       -1.8077384212
O           2.7059950497       -0.3411939973       -1.6384958611
N           2.0820810069        1.6433888958       -0.7940806341
H           1.7250577389        2.5692267531       -0.9941344144
CA          2.3453250116        1.3231733609        0.6221652234
HA          3.3552360335        0.9181080448        0.7050297237
CB          2.3006426515        2.6147880703        1.4564171576
HB2         2.4530599264        2.3684746777        2.5091761424
HB3         3.1185782682        3.2636711327        1.1368593264
OG          1.0644612727        3.3102748754        1.2976991066
HG          1.0838176053        4.1265804921        1.8445469237
C           1.4004761995        0.2573353092        1.2181718611
O           1.6893610959       -0.3104940627        2.2760905879
N           0.3016921539       -0.0721297411        0.5243611685
H           0.1123793155        0.4518781807       -0.3192916813
CA         -0.6292570069       -1.1551717413        0.8846965678
HA         -0.7009971927       -1.2111084542        1.9724240726
CB         -2.0290073269       -0.8156982309        0.3325119129
HB2        -2.7039025852       -1.6439148035        0.5567479238
HB3        -1.9682574221       -0.7076919159       -0.7517150667
CG         -2.6141536276        0.4653816940        0.9566360301
HG2        -2.5847326997        0.3701463849        2.0430868124
HG3        -2.0070376645        1.3263927586        0.6735868828
CD         -4.0693838366        0.7262638895        0.5379322979
HD2        -4.4313017169        1.5957315750        1.0902065867
HD3        -4.6814002852       -0.1342083462        0.8158706659
CE         -4.2029105013        0.9951993674       -0.9694876269
HE2        -3.8598058330        0.1148457887       -1.5210110171
HE3        -3.5521391015        1.8336395512       -1.2364746953
NZ         -5.6067201418        1.3076099524       -1.3513355010
HZ1        -5.6806705911        1.4825419277       -2.3446326180
HZ2        -6.2264783868        0.5406288822       -1.1283203924