    52
Energy=    -37.9728100101853    
HH        -5.371790315        -1.780624145        0.4114803386    
CH        -4.481168119        -2.251880564       -0.2478005905E-02
HH        -4.564329760        -2.299053523        -1.087709940    
HH        -4.382908355        -3.259173945        0.4004474595    
C         -3.265439434        -1.439698648        0.3785490541    
O         -2.541935819       -0.9597090601       -0.4930553438    
N         -3.022822791        -1.303616747         1.682735346    
H         -3.668840290        -1.734034731         2.329204963    
CA        -1.937504016       -0.4858084072         2.241380903    
HA        -2.047572685        0.5319186959         1.862418690    
CB        -2.113497305       -0.4467782967         3.765158618    
HB        -1.353554879        0.2001565277         4.205930179    
HB        -2.010959854        -1.450406826         4.181288335    
HB        -3.098540193       -0.5027055591E-01     4.015893667    
C        -0.5205092641       -0.9665136057         1.851202379    
O         0.4225032920       -0.1700244790         1.840347981    
N        -0.3670578656        -2.241999441         1.471805611    
H         -1.176789472        -2.844356521         1.516183656    
CA        0.8956772672        -2.829725161         1.009463714    
HA         1.656592041        -2.650610078         1.771353807    
CB        0.6904415871        -4.345385355        0.8884297590    
HB       -0.6424339583E-01    -4.563025908        0.1307665528    
HB        0.3695721412        -4.755276454         1.847317265    
HB         1.629319570        -4.821190835        0.6015081622    
C          1.421948061        -2.224220161       -0.3143300634    
O          2.614812989        -2.338429330       -0.6114904011    
N         0.5643738939        -1.548396096        -1.091962401    
H        -0.4082168706        -1.511861562       -0.8125314933    
CA        0.9441220510       -0.8203829331        -2.308349682    
HA         1.684606004        -1.412975798        -2.848635161    
CB       -0.2999434479       -0.7068139656        -3.199131550    
HB        -1.053834543       -0.8719045979E-01    -2.711764724    
HB       -0.2921671977E-01   -0.2505966778        -4.152127133    
HB       -0.7136930568        -1.698018753        -3.389906004    
C          1.584429732        0.5649307130        -2.038601249    
O          2.120084566         1.177522180        -2.968722180    
N          1.552928097         1.043019182       -0.7837739857    
H          1.115668512        0.4595550531       -0.8309736813E-01
CA         2.009547091         2.364950060       -0.3277293952    
HA         1.730290448         2.441487923        0.7247443129    
CB         3.548774706         2.403932386       -0.3649162120    
HB         3.915458993         3.292280801        0.1501304315    
HB         3.954262503         1.524213399        0.1371738150    
HB         3.902881399         2.423287197        -1.396089359    
C          1.322690934         3.572713684        -1.022285937    
O         0.4265566570         3.420187008        -1.861907268    
N          1.711749043         4.794878017       -0.6308158538    
H          2.437507806         4.849550899        0.7141883611E-01
CH         1.170787005         6.053692578        -1.147023013    
HH        0.9939112338E-01     6.113282295       -0.9442212038    
HH         1.330106355         6.116526727        -2.225566984    
HH         1.667284883         6.899963497       -0.6681119261    
    52
Energy=    -33.6176190692919    
HH        -3.812228647         2.177122304        0.6717188008    
CH        -2.739822908         2.254751631        0.4973790146    
HH        -2.433268474         3.297495243        0.5686016568    
HH        -2.506869228         1.872776512       -0.4955840532    
C         -2.006798303         1.436105386         1.535821598    
O         -1.253222652         1.990571312         2.335020589    
N         -2.236235730        0.1225391867         1.518374779    
H         -2.883240153       -0.2249565179        0.8254228611    
CA        -1.646573792       -0.8537167184         2.441587743    
HA        -1.480979801       -0.3643142839         3.403094485    
CB        -2.681219691        -1.965867994         2.689632112    
HB        -2.298613449        -2.673766688         3.426816478    
HB        -2.909143876        -2.491454482         1.760558114    
HB        -3.601100196        -1.528140263         3.080857427    
C        -0.2543181347        -1.333250214         1.960183327    
O         0.6629012733       -0.5212364069         1.813320863    
N        -0.7405095125E-01    -2.631992238         1.682139742    
H        -0.8511230050        -3.262379030         1.822768780    
CA         1.205617421        -3.214875912         1.250097169    
HA         1.961277103        -2.978029641         2.001421232    
CB         1.037818481        -4.739347262         1.209358198    
HB        0.2871359974        -5.015590190        0.4669786576    
HB        0.7296509458        -5.106161904         2.189616610    
HB         1.987797404        -5.205827785        0.9443532196    
C          1.719624446        -2.669141765       -0.1043105947    
O          2.928077961        -2.672583032       -0.3561823690    
N         0.8199746402        -2.159726083       -0.9561729744    
H        -0.1552844453        -2.233486441       -0.7040686202    
CA         1.142621353        -1.495409415        -2.225343558    
HA         2.022585954        -1.977124440        -2.655259136    
CB       -0.3100115070E-01    -1.731819855        -3.185843667    
HB       -0.9300420734        -1.243657007        -2.806340977    
HB        0.2078871982        -1.321655894        -4.167947310    
HB       -0.2163833707        -2.801903367        -3.290246416    
C          1.480880180        0.1154874745E-01    -2.084788719    
O          1.857001699        0.6455542599        -3.076510546    
N          1.362724510        0.5750509687       -0.8717016635    
H          1.101928063       -0.3547330929E-01   -0.1083378526    
CA         1.468168995         2.002695886       -0.5335152872    
HA         1.220084197         2.081209466        0.5267033224    
CB         2.934101292         2.453899632       -0.6597118855    
HB         3.056087000         3.451597752       -0.2368930372    
HB         3.582282461         1.765802834       -0.1150876656    
HB         3.234772561         2.477802395        -1.707488325    
C         0.4565568788         2.930633809        -1.257325862    
O        -0.2960324619         2.514492131        -2.146252298    
N         0.4103291668         4.204167057       -0.8411538956    
H          1.044601784         4.476427391       -0.1017975341    
CH       -0.4843913813         5.230173733        -1.379759606    
HH        -1.524226115         4.910637947        -1.284792703    
HH       -0.2635703725         5.403111140        -2.435119554    
HH       -0.3527483036         6.166721211       -0.8342906706    
    52
Energy=    -37.1738336533527    
HH        -3.692372009         2.212479264         4.013701128    
CH        -2.615735914         2.100245105         4.135469445    
HH        -2.342546558         2.301558573         5.170606556    
HH        -2.101189639         2.801164873         3.479333334    
C         -2.216250243        0.6885960434         3.768497469    
O         -1.666819778       -0.3518912700E-01     4.599562335    
N         -2.493128472        0.2977515058         2.525242803    
H         -2.940824066        0.9616172711         1.911141841    
CA        -2.159805149        -1.022052804         1.980619708    
HA        -2.453500090        -1.777766576         2.712076446    
CB        -2.994371711        -1.250686385        0.7121600038    
HB        -2.812507005        -2.253853947        0.3237240405    
HB        -2.724605742       -0.5190364094       -0.5152475457E-01
HB        -4.056158509        -1.153813790        0.9443318114    
C        -0.6486514460        -1.197949248         1.711035400    
O         0.7774847426E-01   -0.2281706784         1.467524216    
N        -0.1793832208        -2.451483809         1.688653636    
H        -0.8254486589        -3.204514386         1.882825267    
CA         1.233998560        -2.804538254         1.489391844    
HA         1.827800351        -2.267480309         2.231392921    
CB         1.384866902        -4.307405457         1.759138257    
HB        0.8042124154        -4.879652284         1.033661228    
HB         1.037327660        -4.541517834         2.766525947    
HB         2.435012001        -4.591509555         1.677000487    
C          1.792408722        -2.423374258        0.9724897443E-01
O          3.007444856        -2.276711672       -0.6438155464E-01
N         0.9183996359        -2.219734557       -0.8970761799    
H        -0.5692351633E-01    -2.400522213       -0.7084343593    
CA         1.273235667        -1.740269165        -2.237785881    
HA         2.182626993        -2.251859026        -2.558227403    
CB        0.1436717486        -2.149042958        -3.192748712    
HB       -0.7830048725        -1.643892450        -2.915526425    
HB        0.4071498622        -1.871304697        -4.214194297    
HB       -0.5851385842E-02    -3.229009425        -3.151823862    
C          1.559846609       -0.2186865505        -2.310623521    
O          2.063563004        0.2550941086        -3.334844428    
N          1.265037540        0.5338965283        -1.237957855    
H         0.8806539311        0.5542709579E-01   -0.4335848546    
CA         1.355591235         1.998233070        -1.131102856    
HA        0.9364448721         2.262565484       -0.1584771741    
CB         2.839558382         2.407392581        -1.081707770    
HB         2.931323185         3.458138525       -0.8053133351    
HB         3.364487401         1.809038629       -0.3355021859    
HB         3.307086857         2.257198496        -2.055310529    
C         0.5094010515         2.785366643        -2.168827753    
O        -0.2160888961         2.210858753        -2.990374937    
N         0.5621221172         4.123526113        -2.099550572    
H          1.162455868         4.529795322        -1.394296837    
CH       -0.1774546456         5.039067699        -2.970473961    
HH        -1.251766632         4.877704216        -2.859210517    
HH        0.9885363417E-01     4.870475175        -4.013458518    
HH        0.5205892404E-01     6.073836553        -2.708524064    
