    52
Energy=    -39.4439050626149    
HH        -4.772420230         1.052824254         1.211547839    
CH        -3.891409083         1.334931325        0.6364910999    
HH        -3.547343695         2.316637448        0.9593050036    
HH        -4.142461778         1.366012944       -0.4230220204    
C         -2.797446070        0.3175819132        0.8703142432    
O         -2.359111777       -0.3411524263       -0.7251224739E-01
N         -2.371950734        0.1897322164         2.129091978    
H         -2.802549026        0.7843886734         2.822058431    
CA        -1.328155167       -0.7350991200         2.595647594    
HA        -1.058837729       -0.4382806652         3.610620852    
CB        -1.951837263        -2.141047134         2.698926962    
HB        -1.271535231        -2.819739063         3.214906343    
HB        -2.169648471        -2.533520652         1.704351868    
HB        -2.879277274        -2.091950414         3.271765818    
C        -0.1449827255E-01   -0.6558130800         1.772723552    
O         0.3374448065        0.4012355186         1.238267328    
N         0.7305421405        -1.763053509         1.665602852    
H         0.4075728512        -2.599510935         2.131087174    
CA         2.018954955        -1.832467775        0.9639769185    
HA         2.684587719        -1.084224834         1.398462878    
CB         2.623504638        -3.217200514         1.230450325    
HB         1.984057337        -3.994052054        0.8078672558    
HB         2.726954943        -3.377987118         2.304641954    
HB         3.610973993        -3.281249345        0.7710244069    
C          1.932956922        -1.539150520       -0.5531929369    
O          2.939979546        -1.170858809        -1.164865432    
N         0.7439176495        -1.655226657        -1.160559617    
H        -0.4098669352E-01    -1.980649033       -0.6145194409    
CA        0.4994934288        -1.288168620        -2.559371431    
HA         1.311326205        -1.686745586        -3.170666471    
CB       -0.8017761691        -1.962280227        -3.012182069    
HB        -1.644882519        -1.582675629        -2.433930574    
HB       -0.9738497209        -1.751952394        -4.068621685    
HB       -0.7274815593        -3.042248045        -2.876932116    
C         0.4617837515        0.2411949364        -2.786648269    
O         0.7951838457        0.7072867155        -3.880757557    
N         0.9816359249E-01     1.023850634        -1.761514429    
H        -0.1933741759        0.5720605088       -0.9039981291    
CA        0.1326131435         2.491197364        -1.775109984    
HA        0.6569106922E-01     2.844148090        -2.805616384    
CB        -1.105392354         3.004798050        -1.030558219    
HB        -1.132892526         4.094345820        -1.074753349    
HB        -1.070574441         2.693180920        0.1421771067E-01
HB        -2.008574064         2.611048546        -1.498472575    
C          1.435505925         3.068820709        -1.177263946    
O          1.918532915         4.110547392        -1.634125540    
N          2.019610526         2.393223212       -0.1770586648    
H          1.528980514         1.579653973        0.1786906115    
CH         3.271988436         2.770040842        0.4774873810    
HH         3.506856702         2.058121664         1.271086711    
HH         4.088315654         2.772179289       -0.2477454315    
HH         3.182773114         3.767260999        0.9133834298    
    52
Energy=    -37.1156812837266    
HH        -4.667894679       -0.7171386166        0.7725615900    
CH        -4.033943584       -0.6436349816E-01    0.1737591849    
HH        -4.324000064        0.9732211727        0.3347546009    
HH        -4.145825692       -0.3145799168       -0.8806192727    
C         -2.593428486       -0.2506660569        0.5875790191    
O         -1.770533542       -0.6232813985       -0.2429690054    
N         -2.310190774        0.3120469567E-01     1.861013264    
H         -3.094172547        0.3430398182         2.415771209    
CA        -1.031392317       -0.7474921315E-01     2.586489009    
HA       -0.8001925954        0.9244540021         2.959849728    
CB        -1.255400803       -0.9621388558         3.821814547    
HB       -0.3322411206        -1.030958376         4.399546340    
HB        -1.568471995        -1.963481798         3.522467286    
HB        -2.029888257       -0.5254193679         4.454086088    
C         0.2124730862       -0.5088870540         1.771652381    
O          1.036727023        0.3338705622         1.407363495    
N         0.3597716713        -1.808403609         1.480365816    
H        -0.3642402348        -2.443819584         1.783575543    
CA         1.555126220        -2.386288598        0.8518373881    
HA         2.428094070        -2.073806664         1.427891689    
CB         1.444571116        -3.913129602        0.9527371048    
HB        0.5800566081        -4.265337764        0.3875019732    
HB         1.340004809        -4.210744227         1.997200654    
HB         2.346221117        -4.373606081        0.5463103549    
C          1.790449654        -1.937304456       -0.6093100416    
O          2.935688204        -1.922850735        -1.071120534    
N         0.7311550638        -1.545219111        -1.326428392    
H        -0.1778358955        -1.581421817       -0.8782492230    
CA        0.7915336293       -0.9701447503        -2.674630677    
HA         1.722550546        -1.272664075        -3.156966695    
CB       -0.3667128342        -1.557957158        -3.490807271    
HB        -1.322309756        -1.270440719        -3.049441215    
HB       -0.3207699412        -1.183493974        -4.514321699    
HB       -0.2916876153        -2.646124398        -3.510492148    
C         0.7601147600        0.5747841555        -2.667671645    
O          1.329033993         1.210429696        -3.560378876    
N         0.1241398978         1.184461665        -1.659336829    
H        -0.3609800903        0.6003105392       -0.9894348909    
CA        0.1373394481E-01     2.638194878        -1.501804187    
HA       -0.2196513725         3.077462398        -2.473463546    
CB        -1.165186738         2.920879998       -0.5614804063    
HB        -1.307493983         3.998315149       -0.4674319927    
HB       -0.9672950243         2.501882248        0.4262759180    
HB        -2.077628768         2.480761322       -0.9663977979    
C          1.313027087         3.306107485       -0.9944922061    
O          1.587640376         4.461832621        -1.335904922    
N          2.121875119         2.590232593       -0.2001621492    
H          1.798509238         1.671229893        0.8317000995E-01
CH         3.398968353         3.055277782        0.3402204608    
HH         3.840425699         2.281195059        0.9708860907    
HH         4.089865854         3.284389938       -0.4737141751    
HH         3.247611868         3.954883600        0.9403490518    
    52
Energy=    -41.7229924013841    
HH        -3.999396904        -2.270474694        0.6277301531    
CH        -3.999047499        -1.239684379        0.2755884862    
HH        -4.789115154       -0.6833383649        0.7783748730    
HH        -4.167115039        -1.220658272       -0.8006044076    
C         -2.666026441       -0.6043212070        0.5898575531    
O         -1.955019054       -0.1755339435       -0.3173026896    
N         -2.307328562       -0.5641652720         1.872989236    
H         -2.949540622       -0.9433638045         2.554360073    
CA        -1.089856472        0.9140107072E-01     2.367630817    
HA        -1.131673735         1.145884060         2.091077475    
CB        -1.093771831        0.2700336908E-02     3.899221319    
HB       -0.2230967345        0.5248456708         4.298787013    
HB        -1.059107874        -1.040960868         4.216285359    
HB        -1.995514662        0.4711688598         4.296437856    
C         0.2133188457       -0.4902887365         1.775166242    
O          1.184143928        0.2443516742         1.576522835    
N         0.2246339466        -1.783818664         1.429021337    
H        -0.5980267932        -2.333848138         1.633217734    
CA         1.359234095        -2.454570578        0.7846401684    
HA         2.259731864        -2.246853343         1.365633216    
CB         1.101115292        -3.966041967        0.8312690262    
HB        0.2066499529        -4.213079073        0.2569606773    
HB        0.9682263107        -4.288811900         1.864982370    
HB         1.954108846        -4.496627582        0.4057344426    
C          1.621423208        -1.970822243       -0.6611055517    
O          2.757299686        -2.049105106        -1.138866944    
N         0.5960161331        -1.446520421        -1.346477621    
H        -0.3103680101        -1.424301147       -0.8971321060    
CA        0.6990595183       -0.8482490032        -2.682070452    
HA         1.583325458        -1.240452512        -3.187364737    
CB       -0.5271915824        -1.284206447        -3.494374209    
HB        -1.440356451       -0.9040000745        -3.033971342    
HB       -0.4517378912       -0.8921760930        -4.509556290    
HB       -0.5732686501        -2.373208076        -3.540462322    
C         0.8419567036        0.6889315801        -2.637963329    
O          1.551216195         1.268553710        -3.465974139    
N         0.2012642083         1.351938854        -1.666462022    
H        -0.4199882135        0.8248499042        -1.063702225    
CA        0.2380209923         2.808420018        -1.496327276    
HA        0.1205907672         3.274939610        -2.476180457    
CB       -0.9673484117         3.211729854       -0.6374967386    
HB        -1.007285318         4.298319700       -0.5500478835    
HB       -0.8795478538         2.778664782        0.3593838329    
HB        -1.890079580         2.862373354        -1.103255406    
C          1.562056298         3.334957248       -0.8940254562    
O          1.950019112         4.477266742        -1.163140951    
N          2.266502610         2.517721607       -0.9744255556E-01
H          1.861876766         1.614152183        0.1197126499    
CH         3.546557771         2.850844221        0.5272372797    
HH         3.884793096         2.019531731         1.148854852    
HH         4.298612463         3.047567798       -0.2395820076    
HH         3.439055571         3.738367142         1.154212242    
