    52
Energy=    -37.9782296581959    
HH        -4.263595457        -1.697609143        0.2893697828    
CH        -3.950794162       -0.6666040185        0.1288308423    
HH        -4.638054842        0.5693932815E-02    0.6409531259    
HH        -3.951407916       -0.4460806782       -0.9380417494    
C         -2.560117049       -0.4735071764        0.6839341056    
O         -1.640126393       -0.1288766413       -0.5570760403E-01
N         -2.391841345       -0.7214170133         1.982532958    
H         -3.201028676        -1.006347454         2.515998691    
CA        -1.134652938       -0.5016721245         2.710631444    
HA       -0.8450043773        0.5428748024         2.581958691    
CB        -1.408069929       -0.7383213860         4.201690474    
HB       -0.5063553167       -0.5271557507         4.778367070    
HB        -1.702815895        -1.775548472         4.369559475    
HB        -2.204906357       -0.7607461174E-01     4.543513291    
C         0.4673257611E-01    -1.366649229         2.211589017    
O          1.207952305       -0.9898261460         2.393437542    
N        -0.2327722259        -2.494320074         1.544828794    
H         -1.202598948        -2.765483659         1.464373904    
CA        0.7749893191        -3.349486146        0.9080351886    
HA         1.591635666        -3.510443405         1.614236715    
CB        0.1241309768        -4.708373173        0.6191066573    
HB       -0.6962029883        -4.589614342       -0.9071060079E-01
HB       -0.2578095329        -5.141903342         1.544624582    
HB        0.8655179407        -5.386778195        0.1945086901    
C          1.387540510        -2.731719837       -0.3719594107    
O          2.510343067        -3.084064715       -0.7465718871    
N         0.6759246843        -1.804800474        -1.028928278    
H        -0.2415620350        -1.574872195       -0.6693315240    
CA         1.134693840        -1.071248018        -2.215457219    
HA         1.996649663        -1.581561067        -2.648371896    
CB        0.9014692537E-02    -1.105114492        -3.256921571    
HB       -0.8759828280       -0.5958295595        -2.872270556    
HB        0.3389032500       -0.6043416517        -4.168122044    
HB       -0.2448123268        -2.138961205        -3.495344065    
C          1.575460696        0.3753698855        -1.897588708    
O          2.532487184        0.8696577061        -2.502762422    
N         0.9132265998         1.023566241       -0.9274662412    
H         0.1218537262        0.5399544722       -0.5206780409    
CA         1.120486692         2.410431818       -0.4851983114    
HA        0.3328514215         2.624594849        0.2395101242    
CB         2.448870825         2.492179456        0.2896143681    
HB         2.533458971         3.456062216        0.7922315591    
HB         2.485832861         1.706348427         1.045752534    
HB         3.292332649         2.374112993       -0.3914270701    
C         0.9590953560         3.485653045        -1.594790003    
O         0.6244128835         3.188797127        -2.748588577    
N          1.149682782         4.762018969        -1.230145323    
H          1.405614140         4.937853388       -0.2676543888    
CH         1.022143112         5.917536423        -2.120227842    
HH        0.6539104423E-02     5.975375167        -2.517432736    
HH         1.722662202         5.828845393        -2.953291409    
HH         1.239472141         6.837678881        -1.574200151    
    52
Energy=    -37.5226723782870    
HH        -4.306783264        -1.951032691        0.1050853845    
CH        -4.096452361       -0.8952935222       -0.6170215937E-01
HH        -4.869945978       -0.2917376841        0.4116476623    
HH        -4.077815083       -0.6909000292        -1.131647189    
C         -2.756230340       -0.5503716357        0.5435228026    
O         -1.847772276       -0.1204492003       -0.1655219275    
N         -2.617493877       -0.7620976774         1.852374969    
H         -3.414167394        -1.120164818         2.359983562    
CA        -1.415562497       -0.4103841712         2.619607109    
HA        -1.229294805        0.6577482146         2.493301465    
CB        -1.709552581       -0.6696989607         4.102974980    
HB       -0.8509414166       -0.3687496167         4.705069467    
HB        -1.905281420        -1.730548078         4.268037083    
HB        -2.578044325       -0.8878517757E-01     4.417065702    
C        -0.1417753159        -1.156270128         2.160277142    
O         0.9641212425       -0.6217807716         2.279229681    
N        -0.2871821141        -2.356781588         1.584440789    
H         -1.217850947        -2.747795452         1.540020801    
CA        0.8168867484        -3.145320656         1.025296579    
HA         1.631781473        -3.164913693         1.751364585    
CB        0.3179022548        -4.583585812        0.8352920719    
HB       -0.4966645856        -4.606572149        0.1094376430    
HB       -0.3412555303E-01    -4.983811028         1.787300705    
HB         1.134288039        -5.209886491        0.4727204044    
C          1.388049508        -2.566312430       -0.2910561826    
O          2.546982308        -2.828916201       -0.6266438653    
N         0.6018217320        -1.765546665        -1.023944693    
H        -0.3407561856        -1.596321265       -0.6967651079    
CA         1.011954706        -1.088627926        -2.261121562    
HA         1.819781543        -1.656911644        -2.725313043    
CB       -0.1792765610        -1.110221402        -3.227839804    
HB        -1.006346371       -0.5288343130        -2.818288061    
HB        0.1171784702       -0.6785411805        -4.184638490    
HB       -0.5060264892        -2.137929101        -3.392499903    
C          1.544256217        0.3472832463        -2.036599615    
O          2.198273749        0.9008503750        -2.927059020    
N          1.296310186        0.9270141652       -0.8517897744    
H         0.7603466800        0.3843586731       -0.1917645147    
CA         1.627260726         2.302193631       -0.4477784750    
HA         1.179771450         2.450624540        0.5367194871    
CB         3.149885587         2.411868893       -0.2452580193    
HB         3.398508325         3.358252846        0.2358349859    
HB         3.498348361         1.599369907        0.3941784340    
HB         3.664602209         2.358861035        -1.205135533    
C          1.022333207         3.417392045        -1.344348799    
O         0.3040622168         3.157861325        -2.317907354    
N          1.277420793         4.683498513       -0.9832782259    
H          1.859395497         4.826974197       -0.1686563130    
CH        0.7833492461         5.871642226        -1.681807238    
HH       -0.3086514929         5.881364815        -1.680113929    
HH         1.134956669         5.872624058        -2.715708302    
HH         1.144164389         6.775310251        -1.186596398    
    52
Energy=    -37.9728100101842    
HH        -4.469295480        -3.102969464        0.6240460359    
CH        -4.548366991        -2.103575654        0.1978963266    
HH        -5.409710621        -1.593092227        0.6270184928    
HH        -4.667950972        -2.175588623       -0.8825588056    
C         -3.295728300        -1.322128496        0.5189165027    
O         -2.585794576       -0.8883586689       -0.3873834220    
N         -3.006958640        -1.160925593         1.810779000    
H         -3.645168942        -1.553423739         2.488388057    
CA        -1.878687240       -0.3650784403         2.313216194    
HA        -1.968450285        0.6457355295         1.911104711    
CB        -2.004105138       -0.2815805282         3.840204724    
HB        -1.210120230        0.3511746305         4.239611283    
HB        -1.920217796        -1.277116765         4.279315881    
HB        -2.967418080        0.1531530935         4.111185900    
C        -0.4910461596       -0.9015986993         1.891565704    
O         0.4760163682       -0.1368847367         1.830018577    
N        -0.3906168239        -2.190653352         1.541415159    
H         -1.217270623        -2.764904645         1.627133794    
CA        0.8371866740        -2.830896558         1.055340297    
HA         1.627600045        -2.657425424         1.787941476    
CB        0.5799814387        -4.341628012        0.9809583931    
HB       -0.2052992669        -4.553687682        0.2534040826    
HB        0.2773161504        -4.716297288         1.959962896    
HB         1.493483990        -4.855002879        0.6773697609    
C          1.339502233        -2.276772980       -0.2998915508    
O          2.517917843        -2.437421814       -0.6312574156    
N         0.4792523319        -1.593279939        -1.067804984    
H        -0.4821615246        -1.517888196       -0.7590191602    
CA        0.8425625312       -0.9092336173        -2.314358702    
HA         1.545982746        -1.539255447        -2.861774149    
CB       -0.4253398346       -0.7777611299        -3.168307047    
HB        -1.142999414       -0.1216394928        -2.674059523    
HB       -0.1711000982       -0.3550167972        -4.141074822    
HB       -0.8763891266        -1.759446702        -3.319695731    
C          1.535037377        0.4608276490        -2.101608237    
O          2.059651443         1.031736364        -3.063981696    
N          1.559271818        0.9714460408       -0.8594995716    
H          1.126478613        0.4205894824       -0.1302388817    
CA         2.072237089         2.288919069       -0.4531619392    
HA         1.829654077         2.401281475        0.6051723175    
CB         3.609924493         2.276623375       -0.5397089410    
HB         4.021140423         3.165325063       -0.6012152579E-01
HB         4.003170574         1.397176511       -0.2750685369E-01
HB         3.931021989         2.258167287        -1.581649437    
C          1.402152416         3.500429263        -1.157507522    
O         0.4749983082         3.355965580        -1.964229603    
N          1.842365601         4.718786917       -0.8109275459    
H          2.591771001         4.767554496       -0.1335342121    
CH         1.325404027         5.981072196        -1.343008773    
HH        0.2635489701         6.080778849        -1.108293922    
HH         1.451772164         6.011218955        -2.427310460    
HH         1.863793728         6.822571566       -0.9024911350    
