          45
Energy of minimum      1=    -70.25982291     first found at step      108 after                36824 function calls
HH31       -1.7338771330       -8.3195380143        1.1548234431
CH3        -1.9197052042       -7.8247774680        0.2018048153
HH32       -1.9553575089       -8.5701473303       -0.5921177658
HH33       -2.8739961062       -7.3007824879        0.2456550074
C          -0.8106097839       -6.8314597890       -0.0892733953
O           0.1193352949       -6.6782587455        0.7013633637
N          -0.9102625816       -6.1364654118       -1.2211434570
H          -1.6794943100       -6.3452937698       -1.8445188385
CA          0.1234983887       -5.2116852744       -1.7285085611
HA          1.0741154224       -5.7441192405       -1.7806002618
CB         -0.2382364790       -4.7624408297       -3.1545078173
HB2        -1.1436737127       -4.1529977184       -3.1152706473
HB3         0.5736222548       -4.1489386644       -3.5506181473
OG         -0.4546006799       -5.8762944827       -4.0198354829
HG         -0.6622227815       -5.5463614876       -4.9223167074
C           0.3573550742       -3.9666869268       -0.8459275350
O           1.3804599785       -3.2900358788       -0.9824211996
N          -0.5571274954       -3.6719094023        0.0888958883
H          -1.3794856541       -4.2590075920        0.1387075807
CA         -0.4299643928       -2.5859278094        1.0762237934
HA          0.0749660424       -1.7393035281        0.6073727529
CB         -1.8404243709       -2.1250878162        1.4964192813
HB2        -2.3889398628       -2.9716352143        1.9143998840
HB3        -1.7437211189       -1.3652662860        2.2742613311
CG         -2.6399955436       -1.5200528821        0.3298265406
HG2        -2.7926823914       -2.2742049376       -0.4434981845
HG3        -2.0776409378       -0.6876253303       -0.0962488536
CD         -4.0077381596       -1.0129164622        0.8061837622
HD2        -4.5710765665       -1.8452642075        1.2331277823
HD3        -3.8616367506       -0.2509080340        1.5745707901
CE         -4.7871014198       -0.4130162960       -0.3727118734
HE2        -4.9089449112       -1.1811057995       -1.1426297984
HE3        -4.1999971009        0.4032328357       -0.8047403974
NZ         -6.1209774885        0.0945197614        0.0473281443
HZ1        -6.0331862689        0.8194173450        0.7464064049
HZ2        -6.6217295883        0.4863002606       -0.7389811825
HZ3        -6.6894535334       -0.6464572900        0.4341854275
C           0.4300822037       -2.9643939143        2.3068851379
O           0.7459541722       -2.0957507578        3.1275481912
N           0.8195144824       -4.2390200392        2.4448014197
H           0.5242081380       -4.8945911612        1.7308202128
CH3         1.6332085033       -4.7552042184        3.5416661887
HH31        2.5998551266       -4.2488497534        3.5599886150
HH32        1.7963650696       -5.8255529525        3.4065992299
HH33        1.1244667433       -4.5916155916        4.4932822125
          45
Energy of minimum      2=    -70.13273975     first found at step       81 after                27809 function calls
HH31       -4.5294293417       -4.8442549691        2.4619184934
CH3        -4.5807182846       -4.5201006416        1.4227519257
HH32       -5.2463458806       -5.1819595077        0.8695310190
HH33       -4.9683468790       -3.5027489999        1.3791826329
C          -3.1980101993       -4.5613255474        0.8000510115
O          -2.2206112027       -4.9131217856        1.4590496285
N          -3.1009391512       -4.1804734268       -0.4720740255
H          -3.9366173536       -3.8741535460       -0.9541991355
CA         -1.8489388368       -4.1939321845       -1.2530427525
HA         -1.3743590796       -5.1691471846       -1.1322156511
CB         -2.1749836660       -4.0257802707       -2.7469186671
HB2        -1.2441989594       -3.9936960231       -3.3168375234
HB3        -2.7469360065       -4.8949408476       -3.0780050371
OG         -2.9352278381       -2.8441823490       -2.9977422241
HG         -3.1228236819       -2.7825696503       -3.9604208546
C          -0.8082357567       -3.1463957726       -0.8017203065
O           0.3691601596       -3.2414602788       -1.1619987536
N          -1.2079125918       -2.1786646659        0.0354325796
H          -2.1913572167       -2.1439517421        0.2675307811
CA         -0.3190941399       -1.1850185670        0.6614338706
HA          0.4691258129       -0.9212006438       -0.0460252845
CB         -1.1313624118        0.0902569925        0.9661787698
HB2        -0.4855880969        0.8019275948        1.4840449095
HB3        -1.9628138432       -0.1590453894        1.6285770369
CG         -1.6723887747        0.7677346383       -0.3046382655
HG2        -2.3599462788        0.0941284044       -0.8180994650
HG3        -0.8392579862        0.9959025100       -0.9714034416
CD         -2.4138127319        2.0667420098        0.0381798134
HD2        -3.2470940189        1.8395542296        0.7063322264
HD3        -1.7283865949        2.7502094949        0.5436075099
CE         -2.9445845979        2.7235461805       -1.2439261429
HE2        -2.1017284085        2.9235894010       -1.9126002557
HE3        -3.6129819368        2.0201119688       -1.7498738110
NZ         -3.6705147834        3.9899548698       -0.9568627940
HZ1        -3.0670466845        4.6633137179       -0.5048637439
HZ2        -4.4655818151        3.8276303050       -0.3540517986
HZ3        -4.0135972634        4.4103013044       -1.8101625643
C           0.4032551865       -1.7113263448        1.9260183798
O           1.2867903404       -1.0307236127        2.4589097501
N           0.0493897999       -2.9103227063        2.4089742887
H          -0.6791104615       -3.4115397134        1.9160474384
CH3         0.6323005778       -3.5478027192        3.5861319364
HH31        0.1555283103       -4.5145428902        3.7553873870
HH32        0.4803025518       -2.9190369587        4.4651762183
HH33        1.7023134719       -3.7017761534        3.4360754934
          45
Energy of minimum      3=    -69.61201365     first found at step       46 after                15726 function calls
HH31       -3.4111052709       -5.1969133943        1.1453385347
CH3        -3.4263213375       -4.6930323913        0.1791890103
HH32       -3.7269211168       -5.4002504541       -0.5932398142
HH33       -4.1403717394       -3.8706500586        0.2105766208
C          -2.0461566776       -4.1520877183       -0.1430181622
O          -1.1116884880       -4.3016611025        0.6429600347
N          -1.9117862953       -3.4981565909       -1.2950724688
H          -2.7245312164       -3.3827346077       -1.8873666535
CA         -0.6398928020       -2.9399782546       -1.7933532863
HA          0.1297630850       -3.7103754978       -1.7231772531
CB         -0.7897037218       -2.5747466628       -3.2799964331
HB2         0.1436545683       -2.1362472009       -3.6387217498
HB3        -0.9755935276       -3.4897561491       -3.8460085255
OG         -1.8657472641       -1.6630083487       -3.4990485004
HG         -1.9401982698       -1.4816513774       -4.4618243755
C          -0.1196063766       -1.7302408671       -0.9877826077
O           1.0485986745       -1.3510249470       -1.1150310443
N          -0.9539048891       -1.1486361384       -0.1147118096
H          -1.9034671434       -1.4949772686       -0.0813348693
CA         -0.5912459770       -0.0551124950        0.8019207122
HA          0.1802772322        0.5578747558        0.3342075986
CB         -1.8342039556        0.8294934826        1.0419227406
HB2        -2.5748294665        0.2498524447        1.5962073892
HB3        -1.5453744532        1.6755499001        1.6682124817
CG         -2.5124585679        1.3829751798       -0.2264146389
HG2        -2.9129184089        0.5575980308       -0.8167139320
HG3        -3.3529228386        2.0045106743        0.0863622671
CD         -1.5779166525        2.2260767290       -1.1072489191
HD2        -1.1519601166        3.0344507867       -0.5094583362
HD3        -0.7718711776        1.5988804924       -1.4917815509
CE         -2.3652823692        2.8138458245       -2.2868057421
HE2        -3.1878679682        3.4199599915       -1.8949121244
HE3        -2.8007718446        1.9918435551       -2.8633816338
NZ         -1.5033162120        3.6460929283       -3.1687155933
HZ1        -2.0367846530        4.0260032548       -3.9392649205
HZ2        -1.1028190313        4.4234349552       -2.6613721919
HZ3        -0.7456997291        3.1026356942       -3.5593562433
C           0.0211387523       -0.5447764814        2.1369562239
O           0.4669876267        0.2746238615        2.9477204629
N           0.0551485201       -1.8631425240        2.3747705646
H          -0.3247531156       -2.4716894937        1.6607265227
CH3         0.5969682723       -2.4867762489        3.5787650648
HH31        0.0562012124       -2.1330424856        4.4583289585
HH32        1.6545424139       -2.2386575365        3.6843137496
HH33        0.4924496111       -3.5707742855        3.5110258840
          45
Energy of minimum      4=    -69.59166756     first found at step       31 after                10732 function calls
HH31       -4.3543300534       -4.0152379420        0.4352380548
CH3        -3.8915214835       -3.5583037963       -0.4391662706
HH32       -4.3468396462       -2.5857281385       -0.6234292809
HH33       -4.0474120693       -4.1981356284       -1.3071910948
C          -2.4032044819       -3.3830292946       -0.2034031880
O          -1.8890061314       -3.7356082407        0.8570368118
N          -1.7027853730       -2.8199954721       -1.1864550677
H          -2.1837921145       -2.5943622614       -2.0476747495
CA         -0.2332821698       -2.6720102822       -1.1878262943
HA          0.2168240657       -3.6493847778       -1.0088875766
CB          0.2369032087       -2.1880086581       -2.5702344997
HB2        -0.1326710180       -1.1736448746       -2.7353768386
HB3         1.3285070113       -2.1645337479       -2.5865091203
OG         -0.2331062815       -3.0388134597       -3.6149488868
HG          0.1050867187       -2.7071796407       -4.4763596389
C           0.3155467712       -1.7227811569       -0.1008822704
O           1.5132311015       -1.7419079830        0.1956791242
N          -0.5483217734       -0.9135842825        0.5282901167
H          -1.5139343944       -0.9373703804        0.2266837141
CA         -0.2060168499       -0.0298851765        1.6557567670
HA          0.8170938442        0.3265188844        1.5298275402
CB         -1.1531676992        1.1894168147        1.6400697703
HB2        -2.1726465004        0.8426232526        1.8194165114
HB3        -0.8846322473        1.8532675096        2.4639140679
CG         -1.1493278458        2.0170345044        0.3405057218
HG2        -1.8618615762        2.8343550882        0.4621966872
HG3        -1.4921588438        1.3986065233       -0.4901218250
CD          0.2250456093        2.6112792380       -0.0037801834
HD2         0.9298762428        1.8059470220       -0.2175016825
HD3         0.5888972028        3.1915826199        0.8466793926
CE          0.1070115165        3.5206925965       -1.2353950219
HE2        -0.6225059025        4.3084137973       -1.0231322703
HE3        -0.2736812026        2.9307419373       -2.0748881512
NZ          1.4135591351        4.1319905165       -1.6003534415
HZ1         1.3182727822        4.7284131881       -2.4114852104
HZ2         1.7762742825        4.6984548247       -0.8455979479
HZ3         2.1015057375        3.4245104260       -1.8198193851
C          -0.2293582906       -0.7413807766        3.0306926726
O           0.1717255629       -0.1471041417        4.0374105960
N          -0.6829094983       -2.0007284418        3.0893814444
H          -0.9931670378       -2.4237666614        2.2224231998
CH3        -0.7663059547       -2.8081072713        4.3030528311
HH31       -1.4166857211       -2.3211155645        5.0317582500
HH32        0.2272162975       -2.9342281659        4.7368160525
HH33       -1.1758055317       -3.7907514584        4.0637994880
          45
Energy of minimum      5=    -69.59142734     first found at step       71 after                24389 function calls
HH31       -4.5446208311       -3.9024503153        3.4721205024
CH3        -4.8295507753       -3.7548588551        2.4306777709
HH32       -5.5999160117       -4.4764347186        2.1604292974
HH33       -5.2209951300       -2.7462660612        2.3015914030
C          -3.6220327812       -3.9471988802        1.5326966145
O          -2.5225912110       -4.2258364515        2.0090524947
N          -3.8152801486       -3.7829298076        0.2251287628
H          -4.7553946914       -3.5970584249       -0.0998339556
CA         -2.7936998307       -4.0399262536       -0.8100449749
HA         -2.4149513723       -5.0550099939       -0.6834861901
CB         -3.4363801928       -3.9523690146       -2.2048265240
HB2        -3.7465065950       -2.9213577129       -2.3881838085
HB3        -2.6936930764       -4.2280237608       -2.9563802902
OG         -4.5677337100       -4.8144152748       -2.3196965282
HG         -4.9346496940       -4.7433666444       -3.2289647796
C          -1.5721968132       -3.0975590085       -0.7519671520
O          -0.5292540547       -3.3933536872       -1.3418727389
N          -1.6677090180       -1.9810635424       -0.0160717783
H          -2.5552899285       -1.7914771248        0.4307350495
CA         -0.5631076540       -1.0362679322        0.2243361042
HA          0.0552315810       -0.9802110835       -0.6734944877
CB         -1.1518782576        0.3654060235        0.4841164567
HB2        -1.8134353745        0.3193944569        1.3507900197
HB3        -0.3341369173        1.0511838396        0.7137967044
CG         -1.9170512162        0.9184186670       -0.7330308689
HG2        -2.7945843583        0.3012746097       -0.9307157761
HG3        -1.2648506798        0.8729178263       -1.6064455569
CD         -2.3675073615        2.3756879271       -0.5469957689
HD2        -1.4926722102        2.9976162626       -0.3467011882
HD3        -2.8201709600        2.7135310337       -1.4813181328
CE         -3.3877611188        2.5299846709        0.5922442221
HE2        -2.9255069077        2.2110323185        1.5311498243
HE3        -4.2382175061        1.8699150759        0.3952180166
NZ         -3.8615618744        3.9346270399        0.7211633074
HZ1        -4.3119271866        4.2484639900       -0.1278057573
HZ2        -3.0948947616        4.5632605667        0.9189971852
HZ3        -4.5317561551        4.0223756853        1.4733950414
C           0.3876490629       -1.4711300401        1.3664497894
O           1.4356077622       -0.8469568802        1.5661128108
N           0.0458599077       -2.5310319923        2.1114853442
H          -0.8270012366       -2.9942772091        1.8872413784
CH3         0.8312978652       -3.0684184839        3.2187534037
HH31        0.3174414386       -3.9284627816        3.6509460216
HH32        0.9586904280       -2.3072189183        3.9904403387
HH33        1.8128257132       -3.3847833231        2.8614581558
          45
Energy of minimum      6=    -69.46504221     first found at step       86 after                29336 function calls
HH31       -3.9895599793       -3.9538428763        3.9038875812
CH3        -4.3101581207       -3.8001245328        2.8737685355
HH32       -5.1034065721       -4.5068774140        2.6321363524
HH33       -4.6870800459       -2.7842631403        2.7593138493
C          -3.1407651321       -4.0142196172        1.9315645803
O          -2.0294007457       -4.3125760721        2.3664111047
N          -3.3796705340       -3.8459048364        0.6319771347
H          -4.3266053281       -3.6354938754        0.3424321625
CA         -2.3997060877       -4.1111107320       -0.4403932431
HA         -2.0204330879       -5.1276529149       -0.3256938405
CB         -3.0958358386       -4.0142883987       -1.8101207771
HB2        -2.3967363809       -4.3159272794       -2.5929261956
HB3        -3.3734455736       -2.9732306127       -1.9866795214
OG         -4.2725583996       -4.8202206567       -1.8837329872
HG         -4.0185618230       -5.7695739681       -1.9016144263
C          -1.1708191517       -3.1761885831       -0.4275539013
O          -0.1540535854       -3.4759309726       -1.0595822565
N          -1.2302687180       -2.0620177083        0.3155334407
H          -2.0987227648       -1.8680299224        0.7968400537
CA         -0.1114915107       -1.1249946636        0.5173787764
HA          0.4722754107       -1.0675623339       -0.4032047338
CB         -0.6816127214        0.2783900760        0.8069662360
HB2         0.1471488751        0.9567446573        1.0183997163
HB3        -1.3197456431        0.2350048143        1.6919064068
CG         -1.4815324465        0.8503422315       -0.3759853135
HG2        -2.3451014207        0.2154570414       -0.5791204388
HG3        -0.8446554443        0.8724917547       -1.2617702867
CD         -1.9711586571        2.2724566692       -0.0715987477
HD2        -2.6082011007        2.2513384184        0.8150599911
HD3        -1.1105482352        2.9155481850        0.1238538873
CE         -2.7652777944        2.8228905005       -1.2647006764
HE2        -2.1220075348        2.8156298865       -2.1499993440
HE3        -3.6123572622        2.1585785608       -1.4615060452
NZ         -3.2570475945        4.2039810104       -1.0117278665
HZ1        -2.4898961571        4.8408101077       -0.8449356487
HZ2        -3.8688669415        4.2332233336       -0.2075564538
HZ3        -3.7774444157        4.5525449844       -1.8055908261
C           0.8790867976       -1.5708804082        1.6207402685
O           1.9398572825       -0.9567910598        1.7802744406
N           0.5571578400       -2.6294788784        2.3764976037
H          -0.3279275150       -3.0842467990        2.1857281216
CH3         1.3803633321       -3.1762365955        3.4512637587
HH31        0.8761722090       -4.0327073838        3.9015566834
HH32        1.5444621909       -2.4178929291        4.2188213741
HH33        2.3443904357       -3.5003574062        3.0553619262
          45
Energy of minimum      7=    -69.37195050     first found at step       79 after                27109 function calls
HH31       -4.1679101521       -5.3147886996        2.8389819236
CH3        -4.3618815639       -4.9828988184        1.8192786390
HH32       -4.9227101489       -5.7518338607        1.2888243869
HH33       -4.9464299803       -4.0636962133        1.8423394111
C          -3.0502982728       -4.7299786738        1.1001611406
O          -1.9750137913       -4.8934331515        1.6749776687
N          -3.1283964846       -4.3070740479       -0.1599232332
H          -4.0426499047       -4.1636764603       -0.5700694301
CA         -1.9621248539       -4.0492546265       -1.0264837698
HA         -1.2949289256       -4.9113787528       -0.9768637921
CB         -2.4279537808       -3.9148802151       -2.4863678926
HB2        -1.5684433482       -3.6819421216       -3.1181799990
HB3        -2.8383807878       -4.8735027819       -2.8100751830
OG         -3.4256375621       -2.9055443560       -2.6377134764
HG         -3.6937836318       -2.8593368080       -3.5820493874
C          -1.1196542470       -2.8245565302       -0.6087831542
O           0.0220601425       -2.6716857662       -1.0540069307
N          -1.6387593110       -1.9776776878        0.2914765883
H          -2.5890005342       -2.1468857698        0.5926029068
CA         -0.9200086148       -0.8409673088        0.8919404913
HA         -0.2598303505       -0.4041619289        0.1403817519
CB         -1.9437770752        0.2350895133        1.3096068371
HB2        -1.4102474535        1.0371818100        1.8211422392
HB3        -2.6595992392       -0.1995167738        2.0103105544
CG         -2.6996900978        0.8333007599        0.1076240356
HG2        -3.2277084374        0.0376467154       -0.4191554178
HG3        -1.9830564916        1.2805423864       -0.5829679690
CD         -3.7346491972        1.8937778614        0.5149324632
HD2        -4.2919302550        2.1839213571       -0.3779507734
HD3        -4.4355892317        1.4538884286        1.2272530159
CE         -3.0834156851        3.1436861733        1.1285545515
HE2        -2.5465890584        2.8573841222        2.0377098589
HE3        -2.3524698773        3.5439246935        0.4191499436
NZ         -4.0920957223        4.1883154996        1.4529588098
HZ1        -4.7712738342        3.8474953638        2.1197315548
HZ2        -4.5892617978        4.4868014854        0.6248568648
HZ3        -3.6503797562        5.0042749801        1.8551770606
C          -0.0075655597       -1.2441572727        2.0765770538
O           0.7639968941       -0.4140355063        2.5698231281
N          -0.0768501771       -2.5016214680        2.5348499417
H          -0.7294195888       -3.1259937337        2.0773972030
CH3         0.7143171420       -3.0391300491        3.6380480418
HH31        0.4535907976       -4.0858286742        3.8023504435
HH32        0.5128398112       -2.4762761820        4.5511599726
HH33        1.7778543717       -2.9716078236        3.4024897941
          45
Energy of minimum      8=    -69.02914619     first found at step        0 after                  364 function calls
HH31       -1.1183407139       -3.7323725912       -3.0880598532
CH3        -1.5275036181       -3.1659583919       -2.2520479594
HH32       -2.3767701470       -3.7038641945       -1.8313752391
HH33       -1.8565916092       -2.1896149372       -2.6064904883
C          -0.4556556409       -2.9845201343       -1.1939229364
O          -0.6185465975       -3.4166048035       -0.0537318100
N           0.6433333519       -2.3273709867       -1.5604820638
H           0.7273733616       -2.0377209279       -2.5264137964
CA          1.8370600458       -2.1528205320       -0.7084805386
HA          2.1668230222       -3.1335129358       -0.3630011783
CB          2.9796320066       -1.5415877059       -1.5375403486
HB2         2.7053043849       -0.5237173274       -1.8230462438
HB3         3.8807111389       -1.4964061404       -0.9223728248
OG          3.2470918967       -2.3066687625       -2.7119959379
HG          3.9931631491       -1.8940305129       -3.2014125617
C           1.6039324536       -1.2913624700        0.5512834057
O           2.4148121600       -1.3153222450        1.4811404679
N           0.4865184410       -0.5537563976        0.6161293739
H          -0.1285807249       -0.5678022536       -0.1873154473
CA          0.0670401046        0.2390978261        1.7841765863
HA          0.9547851628        0.6158927122        2.2936424384
CB         -0.7657008927        1.4442095602        1.2954701419
HB2        -1.6789820278        1.0696262462        0.8290458095
HB3        -1.0686302645        2.0393477295        2.1583088422
CG         -0.0594983546        2.3699599677        0.2835855503
HG2         0.1280890024        1.8146941978       -0.6362251478
HG3        -0.7427634269        3.1830245220        0.0340232256
CD          1.2692603661        2.9819187207        0.7593765602
HD2         1.9919109762        2.1866666655        0.9498084229
HD3         1.6614656176        3.6033482533       -0.0481530333
CE          1.0928094652        3.8466968384        2.0180263376
HE2         0.3362681527        4.6111734731        1.8148822634
HE3         0.7231078763        3.2202094627        2.8352764093
NZ          2.3673677144        4.4993657938        2.4236358723
HZ1         3.0816548922        3.8149898104        2.6324972901
HZ2         2.7177764489        5.1037002738        1.6926574518
HZ3         2.2353836552        5.0665394913        3.2506207031
C          -0.7027054314       -0.5825449737        2.8470508637
O          -0.9916333124       -0.0655910937        3.9316878923
N          -1.0310236335       -1.8492014505        2.5594469971
H          -0.7581359755       -2.2051792747        1.6507492002
CH3        -1.7512011690       -2.7537700995        3.4511022601
HH31       -2.7304449500       -2.3376391689        3.6942080668
HH32       -1.8882816457       -3.7198292960        2.9627614791
HH33       -1.1846847111       -2.8996919376        4.3724734973
          45
Energy of minimum      9=    -68.96436014     first found at step       36 after                12362 function calls
HH31       -3.6437488034       -5.5205820597        2.8600562300
CH3        -3.9968157926       -5.1421324252        1.9010514947
HH32       -4.5546983261       -5.9239357912        1.3865458382
HH33       -4.6493873949       -4.2856167153        2.0674874185
C          -2.8167864440       -4.7199987329        1.0462989610
O          -1.6656548885       -4.8187334897        1.4687529403
N          -3.0946663320       -4.2241989187       -0.1577634394
H          -4.0636586620       -4.1409141297       -0.4385058682
CA         -2.0780833691       -3.8014603148       -1.1403514013
HA         -1.3385831905       -4.5976790107       -1.2403857007
CB         -2.7416219519       -3.6166240860       -2.5157463724
HB2        -1.9941640734       -3.2701855657       -3.2323134127
HB3        -3.1151128901       -4.5849831286       -2.8548272070
OG         -3.8259369882       -2.6900561330       -2.4641792414
HG         -4.2260094867       -2.6151156605       -3.3585687381
C          -1.2974794955       -2.5314839906       -0.7388092469
O          -0.2456327974       -2.2369756842       -1.3146149429
N          -1.7640616909       -1.8008435030        0.2835767699
H          -2.6452678827       -2.0844364538        0.6908620227
CA         -1.0828048969       -0.6340754871        0.8682468470
HA         -0.5285144368       -0.1188187031        0.0828603401
CB         -2.1458079520        0.3340804532        1.4321414966
HB2        -2.6565438195       -0.1556223963        2.2635772469
HB3        -1.6435739299        1.2133971330        1.8384288936
CG         -3.2172959896        0.8015297669        0.4253483585
HG2        -3.8819024992        1.4992298715        0.9369394776
HG3        -3.8215385408       -0.0555490036        0.1254539093
CD         -2.6817902928        1.4837172424       -0.8450167622
HD2        -2.0686221123        0.7784902541       -1.4085709138
HD3        -3.5369490509        1.7542492029       -1.4674747141
CE         -1.8713828784        2.7503883451       -0.5263147656
HE2        -1.0016053764        2.4774371094        0.0786520544
HE3        -2.4944792970        3.4244264010        0.0698695813
NZ         -1.4235805905        3.4458466148       -1.7635293709
HZ1        -2.2120045495        3.7300136534       -2.3291831506
HZ2        -0.8328297945        2.8501107577       -2.3277169486
HZ3        -0.8942711182        4.2778768324       -1.5386676146
C          -0.0318796600       -1.0063159051        1.9427757438
O           0.6936381528       -0.1287492403        2.4230635602
N           0.0657214776       -2.2881927619        2.3208383075
H          -0.5596347199       -2.9503461012        1.8787753440
CH3         1.0017281627       -2.8019548505        3.3168750869
HH31        0.8622424989       -3.8779087854        3.4328147720
HH32        0.8274250708       -2.3165325431        4.2787402955
HH33        2.0280478918       -2.6099393982        2.9991111248
          45
Energy of minimum     10=    -68.80918161     first found at step       20 after                 7152 function calls
HH31       -2.6578593767       -5.6142214259       -1.7627848446
CH3        -2.8174820864       -4.9119764683       -0.9451697519
HH32       -3.4029707351       -4.0671201922       -1.3065162789
HH33       -3.3580106611       -5.4098135284       -0.1404687440
C          -1.4764979964       -4.4169945698       -0.4375212274
O          -1.1412272676       -4.5978086407        0.7321035247
N          -0.7059357935       -3.7715314946       -1.3115212244
H          -1.0302332249       -3.6904389796       -2.2670939279
CA          0.6696590180       -3.3114119006       -1.0345778418
HA          1.2547312697       -4.1557802643       -0.6670154539
CB          1.3188029392       -2.8139913188       -2.3390190975
HB2         2.3686255561       -2.5776617234       -2.1531593134
HB3         0.8150890292       -1.8968728290       -2.6508231657
OG          1.2241116175       -3.7695324840       -3.3961382556
HG          1.8148053254       -4.5310843672       -3.2032739691
C           0.7688858548       -2.2044399922        0.0374114426
O           1.8534692454       -1.9443377957        0.5652975164
N          -0.3551654259       -1.5688271590        0.3971914603
H          -1.2079332753       -1.8198626424       -0.0863117882
CA         -0.4493555498       -0.5676258244        1.4733128936
HA          0.4860667316       -0.0087836080        1.5217702237
CB         -1.5899094628        0.4182260161        1.1396575546
HB2        -2.5359610140       -0.1264869310        1.1458035351
HB3        -1.6428228815        1.1730962450        1.9263579598
CG         -1.4644277271        1.1466519609       -0.2122198233
HG2        -1.4919065199        0.4198318182       -1.0251868008
HG3        -2.3311394221        1.8003444200       -0.3218600841
CD         -0.1901956111        1.9962184766       -0.3351690030
HD2        -0.1399003926        2.6922417322        0.5047350231
HD3         0.6868219520        1.3469580583       -0.3171575771
CE         -0.2115818225        2.7813823609       -1.6546047076
HE2        -0.2789161784        2.0729929304       -2.4860969709
HE3        -1.1082859582        3.4084190475       -1.6770042131
NZ          0.9992100867        3.6314838311       -1.8135150617
HZ1         1.8421449055        3.0734287610       -1.8149983087
HZ2         0.9687886204        4.1424089255       -2.6857350288