          14
Energy of minimum      1=    -47.84515678     first found at step        6 after                  723 function calls
SI         0.4183795974        1.1144023970       -1.1088372190
SI        -0.6313651132       -0.2303017096        0.9731139679
SI         0.3776652233       -0.7394079490        0.8421736413
SI        -0.5050516667       -1.0513127780        0.1956421093
SI         0.3233596891        0.3857560166        0.9919704976
SI        -1.1046890363       -0.1188398493       -0.0539804077
SI         0.5277080575       -0.9424657757       -0.2658140868
SI        -0.5913596761        0.7719459927        0.4349818645
SI        -0.3870962767       -0.5557235180       -0.8222797265
SI         1.0403586585       -0.0513374657        0.2232362669
SI         0.4414758880        0.8803896242       -0.0209964877
SI        -0.4459908209        0.5668064638       -0.6710069469
SI         0.5684690156        0.0549607702       -0.8026518514
SI        -0.0318635395       -0.0848722191        0.0844483785
          14
Energy of minimum      2=    -47.84515678     first found at step    33376 after              1723388 function calls
SI         1.2338826879        0.9470261834        0.4765806212
SI        -0.8200094546       -0.2046215929       -0.8272400355
SI        -0.3437086406       -1.0917649960       -0.2975317491
SI        -1.0739876053       -0.4210910219        0.2604698692
SI         0.2814469454       -0.4362976483       -0.9837716403
SI        -0.8999895453        0.6487106083       -0.0810433601
SI        -0.1294358403       -0.7864992770        0.7759123092
SI        -0.0589860885        0.6415964835       -0.8483458602
SI         0.7112472166       -0.7930166337        0.0082534824
SI        -0.4696980267        0.2915404708        0.9106064034
SI         0.6289096926        0.0556636990        0.7561758086
SI         0.8842544770        0.2732979311       -0.3373869640
SI         0.1500459480        0.9475807404        0.2236172100
SI        -0.0939717663       -0.0721249468       -0.0362960947
          14
Energy of minimum      3=    -47.84515678     first found at step    38654 after              1991600 function calls
SI        -1.1722330653        0.9092286908        0.6675529924
SI         0.3927025628       -0.5342754729       -0.9792578794
SI         1.1507217367       -0.0857870318       -0.2590205561
SI         0.5824768389       -1.0288675329        0.0276389230
SI         0.4409639005        0.5915585980       -0.8324565603
SI         0.7479784332       -0.2085864640        0.7964889274
SI        -0.4783358328       -0.9341456488       -0.3687023173
SI         0.6570934368        0.7949517381        0.2666384335
SI        -0.5687109213        0.0696942450       -0.8980683185
SI        -0.2618240471       -0.7301181125        0.7301998455
SI        -0.9711700625       -0.0578211817        0.1546386859
SI        -0.2090720567        0.3930805354        0.8787515408
SI        -0.3998674913        0.8903339497       -0.1335632807
SI         0.0892765681       -0.0692463125       -0.0508404361
          14
Energy of minimum      4=    -47.84515678     first found at step    12292 after               644472 function calls
SI        -1.0694142723        1.1971195317        0.2640305088
SI         1.1392396126       -0.2904603800       -0.1279744150
SI         0.3593669930       -0.8530150298       -0.7360925902
SI         0.4408276995       -1.0275585360        0.3852349577
SI         0.5487913547        0.2497167401       -0.9347963734
SI         0.6805775023       -0.0326576363        0.8792737931
SI        -0.5810910046       -0.9427517557       -0.1045324476
SI         0.7441092671        0.7596040162        0.0641813193
SI        -0.5170346313       -0.1501116813       -0.9192158494
SI        -0.3853032811       -0.4323686450        0.8941000173
SI        -0.1918490359        0.6679180929        0.6982170659
SI        -0.2737480754        0.8434008017       -0.4291442433
SI        -0.9759180791        0.1023363878        0.0868266623
SI         0.0814459504       -0.0911719064       -0.0201084054
          14
Energy of minimum      5=    -47.84515678     first found at step    16816 after               870551 function calls
SI         0.3783436402        1.4269910231        0.6833790146
SI        -0.4959892548       -0.5472968546       -0.9236191800
SI        -0.5976094172       -1.0147220738        0.1086907341
SI         0.4074542522       -1.0258980410       -0.4244123231
SI        -1.1056371325       -0.0242283178       -0.1198089352
SI         0.3559428640       -0.7985035373        0.6878018898
SI         0.5203427358       -0.0423086627       -0.9822566240
SI        -0.5778854115       -0.1755575165        0.8775215749
SI         1.0474183656       -0.1936303431        0.0154324967
SI        -0.4135538978        0.5803229288       -0.7918425197
SI         0.5408754929        0.7940714877       -0.2175589028
SI        -0.4695963330        0.8053075919        0.3184127338
SI         0.4387085211        0.3241310970        0.8203057773
SI        -0.0288144250       -0.1086787815       -0.0520457364
          14
Energy of minimum      6=    -47.84515678     first found at step     7128 after               371269 function calls
SI         1.3048359066        0.4036981692        0.8836770977
SI        -0.9604182619       -0.6855315280       -0.0790876994
SI        -1.0084779707        0.3735724104       -0.4919628185
SI        -0.3974865490       -0.4201669611       -1.0315404724
SI        -0.8967162941        0.2033589851        0.6260348811
SI         0.0139878339        0.6326625772       -0.9148317140
SI         0.0917382504       -1.0807429851       -0.2468873318
SI        -0.2909001375        1.0186638736        0.1118799671
SI        -0.2131820500       -0.6940292458        0.7795466145
SI         0.6971434020       -0.2649041604       -0.7606792803
SI         0.7588312917        0.6252532083       -0.0605078409
SI         0.1928704942        0.3584607389        0.8970699938
SI         0.8071496054       -0.4395496716        0.3545889216
SI        -0.0993755211       -0.0307454107       -0.0673003184
          14
Energy of minimum      7=    -47.84515678     first found at step     3356 after               160300 function calls
SI        -0.3125321498       -0.5290031845       -1.5062979301
SI         0.4073644568       -0.2774853196        1.0750198486
SI        -0.4455384428        0.4706301921        0.9892493602
SI         0.6049661002        0.7662278883        0.6674746578
SI        -0.6099048144       -0.6153466037        0.6976670667
SI         1.0895887504       -0.1371322202        0.1771038395
SI        -0.2902272619        1.0731600205        0.0383453788
SI        -1.0414236295        0.2178343601        0.0529256104
SI         0.3378186475       -0.9919546352        0.1916263746
SI         0.6573632761        0.6958498994       -0.4674211644
SI         0.4974574373       -0.3893405783       -0.7558953066
SI        -0.5586997754       -0.6865288586       -0.4323891650
SI        -0.3600348558        0.3628004742       -0.8421273188
SI         0.0238022614        0.0402885656        0.1147187482
          14
Energy of minimum      8=    -46.16320186     first found at step      765 after                33494 function calls
SI        -1.3553171469       -0.3691139772        0.3083236818
SI         0.8311852552        0.7793644570       -0.3655283411
SI         1.1700078319       -0.2343493333       -0.0897268904
SI         0.4318745752       -0.6762511988       -0.8056016584
SI         0.3336630196        0.8847416079        0.6314480512
SI         0.6727227923       -0.1296818245        0.9074425787
SI         0.0928148128        0.3381722365       -1.0815961879
SI         0.4488697342       -1.0076762699        0.2584028504
SI        -0.2434394494        1.0636242003       -0.3051365776
SI        -0.7156651614        0.5114745867        0.5361882648
SI        -0.5248196271       -0.8493145353       -0.2539880144
SI        -0.3747017623       -0.5086442584        0.8137323503
SI        -0.8657830223        0.1708043106       -0.5315321017
SI         0.0985881480        0.0268499986       -0.0224280057
          14
Energy of minimum      9=    -45.93415800     first found at step        2 after                  517 function calls
SI         0.7751902844       -0.6694558483        1.0471953197
SI        -0.2983409024       -1.0373671289        0.9902379983
SI        -0.3594049679        1.1416320233       -0.6002188495
SI        -1.0266128572        0.1972626114       -0.7282254068
SI         0.7544739601        0.8076612098       -0.6337279805
SI        -0.3290074280       -0.7100461971       -0.8650434876
SI         0.7747377300       -0.3317802468       -0.8064831324
SI        -0.8342065967        0.6335522814        0.2921382761
SI         0.2397907727        1.0016233281        0.3491203313
SI        -0.8014543397       -0.4925379501        0.1430005998
SI         0.9171832536        0.0964585929        0.2341847171
SI         0.2765291554       -0.8179100479        0.0712052581
SI        -0.0498932649        0.0224237812        0.7955432724
SI        -0.0389847992        0.1584835910       -0.2889269160
          14
Energy of minimum     10=    -45.93415800     first found at step     3861 after               188943 function calls
SI         0.6449654000        1.0689922166       -0.7661490856
SI        -0.1556666976        1.4553543259       -0.0584877111
SI         0.1256765626       -1.1050631724        0.7455193234
SI         0.4718935787       -1.1257456526       -0.3649272742
SI        -0.8564285901       -0.4847354352        0.8091479267
SI        -0.3048831274       -0.5433099371       -0.9861908113
SI        -1.1280485946       -0.1460738691       -0.2586126798
SI         0.9362774808       -0.4105141328        0.3708052556
SI         0.1352977070       -0.0239842444        1.0787739328
SI         0.6692491212       -0.0529464438       -0.6742952993
SI        -0.6124988509        0.5655884010        0.4586139780
SI        -0.3031749303        0.5172017377       -0.6253820699
SI         0.4820221691        0.5959386255        0.2199841921
SI        -0.1046812283       -0.3107024193        0.0512003226
          14
Energy of minimum     11=    -45.93415800     first found at step      311 after                13978 function calls
SI         1.3856563931       -0.1019939575       -0.4639641582
SI         0.6373636150       -0.0551217115       -1.3177398707
SI        -0.8912486993        0.5808805439        0.8130263370
SI        -0.0239780634       -0.0432877964        1.2730710736
SI        -1.2654644948        0.0344775615       -0.1434212313
SI         0.1192337933       -0.9815031296        0.6189883959
SI        -0.6501192916       -0.9333116902       -0.2588163845
SI         0.1906023749        0.8608182424        0.6366290913
SI        -0.5580153507        0.9077108414       -0.2175173746
SI         0.8047490181       -0.0855785355        0.5004270125
SI        -0.3932078880       -0.0105398192       -0.8663996372
SI         0.4211904922       -0.6400486749       -0.4042915686
SI         0.4714973964        0.5151455607       -0.3849630093
SI        -0.2482592951       -0.0476474352        0.2149713243
          14
Energy of minimum     12=    -45.92070122     first found at step      310 after                13909 function calls
SI        -1.2628630904       -0.7500295461        0.4016103114
SI        -1.1103436383        0.2459535178        0.9189423261
SI         1.3163037991       -0.1262697283       -0.1965986960
SI         0.7329837408        0.4026879995       -1.0429899299
SI        -0.3133379942       -0.0887879562       -1.1172164908
SI         0.6306800717       -0.9448285533        0.2525437370
SI         0.8139283040        0.8718591866       -0.0160730061
SI        -0.3956314515       -0.9106603275       -0.2964598945
SI         0.7583430113        0.0613509838        0.7671304306
SI        -0.1662812676        0.8998051918       -0.5744896171
SI        -0.1519419851        0.6852917577        0.5329936800
SI        -0.8388078079        0.1135785942       -0.1464788714
SI        -0.2510079688       -0.4194414224        0.7064124774
SI         0.2379762769       -0.0405096977       -0.1893264567
          14
Energy of minimum     13=    -45.83103213     first found at step       50 after                 1977 function calls
SI        -0.6103338577        1.4220754682        0.0120642474
SI        -0.1925156101        1.1032513987        1.0176186049
SI         0.9076412197       -0.7406476651       -0.6305277922
SI        -0.0526734180       -0.4095614008       -1.1955202326
SI         1.1411018984        0.0551118379        0.1757285528
SI        -0.0950283038       -1.1949624355       -0.3768883622
SI         0.6212852253       -0.9042592261        0.4539477471
SI        -0.4204442818        0.5919739381       -0.7271205886
SI        -0.8946477479       -0.3978726562       -0.4426474530
SI        -0.4758059175       -0.7037619957        0.5619615660
SI         0.3505493366        0.8733133894        0.0800814146
SI         0.2654427491        0.0843569605        0.8909649549
SI        -0.6767645084        0.3703253493        0.3450782287
SI         0.1321932161       -0.1493429627       -0.1647408878
          14
Energy of minimum     14=    -45.83103213     first found at step    13051 after               682838 function calls
SI        -0.6079420278       -1.4164690378        0.1377445395
SI         0.5243825586       -1.4179168313        0.0656378406
SI         0.0231080927        1.1882590959        0.5978655218
SI        -0.9585952993        0.8194839154        0.0965651204
SI         0.6217381123        0.2593472208        0.9392614759
SI        -0.0654142696        1.1387629303       -0.5272100155
SI         0.8868274573        0.7892724356       -0.0182953310
SI        -0.9603971492       -0.3455133574        0.1190324511
SI        -0.6628483034        0.2228835671       -0.8158364133
SI         0.4658107805        0.2111615203       -0.8808542145
SI        -0.0032080470       -0.6592658177        0.6762635855
SI         0.8660437876       -0.3479596850        0.0169326877
SI        -0.0799491999       -0.6801766206       -0.4951746539
SI        -0.0495564928        0.2381306643        0.0880674056
          14
Energy of minimum     15=    -45.83103213     first found at step     3863 after               189038 function calls
SI         0.8801338793        1.2672191610       -0.1202977742
SI        -0.2150548288        1.4962970211        0.0679718969
SI        -0.3279799945       -1.1089507947       -0.6577188627
SI         0.7502484906       -0.9895166570       -0.2403490064
SI        -0.7436508011       -0.0534261818       -0.8832669531
SI        -0.1312549464       -1.1646179271        0.4532633467
SI        -1.0289737225       -0.5887988950        0.0654031794
SI         0.9973792959        0.1483948181       -0.1977989042
SI         0.6702816729       -0.4160982931        0.7295332074
SI        -0.4197888787       -0.1772114970        0.9109590560
SI         0.0829598821        0.6940481561       -0.6351290904
SI        -0.7704016229        0.5190886545        0.0917758610
SI         0.2662741046        0.6093863509        0.5215135902
SI        -0.0101725304       -0.2358139162       -0.1058595466
          14
Energy of minimum     16=    -45.83103213     first found at step     3618 after               175442 function calls
SI        -0.3316734421       -1.2531533708        0.8453111612
SI        -1.1034171527       -0.4272122733        0.9432570137
SI         0.9602064737        0.8985043064       -0.2015697984
SI         1.1316664058       -0.2041852536       -0.5267097733
SI         0.2252478383        0.8983790930        0.6915271487
SI         0.4119262953        0.4685962151       -1.0907542130
SI        -0.1403904055        1.1262030506       -0.3488636683
SI         0.4893249762       -0.8886385613        0.1636870898
SI         0.1359325555       -0.6069794496       -0.8762033438
SI        -0.6355716093        0.2122388772       -0.7671221593
SI        -0.0212890017       -0.1918095324        0.9245161047
SI        -0.7482637395        0.4477613962        0.3331750420
SI        -0.5849434246       -0.6097429241       -0.0168761553
SI         0.2112442306        0.1300384265       -0.0733744488
          14
Energy of minimum     17=    -45.22605821     first found at step      143 after                 5334 function calls
SI         0.5099469936       -0.1903026677       -1.2246811425
SI         0.0974646205        1.3263519330       -0.1655177935
SI         1.2355402273       -0.0260842296        0.5185218433
SI        -0.0974646204       -1.3263519330        0.1655177933
SI        -0.5099469937        0.1903026673        1.2246811425
SI        -1.2355402274        0.0260842301       -0.5185218431
SI         0.8952130347        0.5391650208       -0.4234167588
SI        -0.3997999856       -0.7240438922       -0.7663598778
SI         0.3051131933       -0.5645058266        0.9271602664
SI        -0.8005262426        0.7493846980        0.2626163703
SI         0.4858135581       -0.4547774040       -0.1593734052
SI        -0.1851633564        0.3425803796       -0.5626636629
SI         0.2426257168        0.4393988863        0.4650790932
SI        -0.5432759182       -0.3272018620        0.2569579748
          14
Energy of minimum     18=    -45.19206483     first found at step      187 after                 7319 function calls
SI        -1.1918456286        0.0877993113       -0.8121654775
SI         0.7472389092        0.6437893252        1.0361258608
SI        -0.6847003170       -0.5658729934        1.0073707148
SI         1.0097342485        0.3953389060       -0.8320246753
SI         1.2773564391        0.0519205421        0.2162986457
SI        -0.7012691509        0.9065615966       -0.1882162391
SI        -0.4616607088       -0.7861834854       -0.8719814648
SI        -0.1787917729       -1.1726460526        0.1750946222
SI        -0.3702527694        0.5230847968        0.8680668083
SI        -0.1087876039        0.2842312802       -0.9445562429
SI         0.3486313648       -0.3288966678        0.6991797764
SI         0.4873086857       -0.4704187436       -0.3831498733
SI         0.3320784184        0.5767192458        0.0190044030
SI        -0.5050401141       -0.1454270611        0.0109531417
          14
Energy of minimum     19=    -45.17006993     first found at step     1180 after                60826 function calls
SI        -0.4607356204        0.5829489330       -1.3287863763
SI        -0.4194653404       -1.0481359220        0.8695977894
SI         0.6171370974        0.4927885209        1.1861878751
SI         1.0534349158       -0.6584747565       -0.2442696656
SI        -0.7044949079       -0.4531665235       -0.9349702915
SI         0.3028822627        1.0443141393       -0.6273059324
SI        -1.0882010673       -0.4657201609        0.1496923230
SI        -0.0377726751        1.0957567624        0.4705050112
SI         0.6167148150       -0.5823551844        0.8151779518
SI         0.3520384000       -0.0484511073       -0.9168460453
SI        -0.3054942243        0.0459253450        0.7767412250
SI        -0.4752187122        0.3706243767       -0.2479271755
SI        -0.0321661708       -0.6440210001       -0.0775843868
SI         0.5813412276        0.2679665775        0.1097876980
          14
Energy of minimum     20=    -45.15357194     first found at step     7095 after               367338 function calls
SI         1.2070854204        0.0594930580        0.6186863772
SI        -0.3318719182        0.9880017750        0.8701040103
SI        -0.2973997931       -0.1679735081       -1.2000777930
SI         0.2863985112        0.7150269641       -0.8875816507
SI        -0.0580982738       -1.0599453352       -0.5678342328
SI        -1.0276382558       -0.4749867407       -0.4094416338
SI         0.9677422979       -0.0592461276       -0.4695200788
SI        -0.5857048654        0.8780048233       -0.2157352603
SI        -0.4591244665       -0.8891147990        0.4732280320
SI         0.6282287468       -0.8173815313        0.2808693921
SI        -0.9184689795        0.1157972415        0.5335515657
SI         0.5112070210        0.7957452635        0.1903978691
SI         0.1362775950       -0.0238427145        0.9222247785
SI        -0.0586330400       -0.0595783691       -0.1388713755
          14
Energy of minimum     21=    -45.11589185     first found at step     7265 after               382280 function calls
SI         0.1338197846        1.3163112240       -0.7147893309
SI        -0.0194205787       -0.4799601097        1.3442075102
SI        -0.2335808548       -1.3684864069       -0.3321409858
SI         1.2225428984       -0.1910445523       -0.0549241499
SI        -0.7527627209       -0.8876666782        0.5666644264
SI        -0.1918051416        0.3278559683       -1.1993504125
SI         0.0150181113        1.1859418020        0.4195672281
SI         0.4203307316       -0.5661887219       -0.8066514557
SI         0.6277398915        0.2943279723        0.8168523962
SI        -0.7429145805        0.7712093096       -0.3138589391
SI        -0.5832389116       -0.3233711245       -0.3831476032
SI        -0.4593399200        0.1906715086        0.5866769228
SI         0.2747901714       -0.6204845356        0.2937740506
SI         0.2888211193        0.3508843444       -0.2228796571
          14
Energy of minimum     22=    -45.09327338     first found at step        0 after                  285 function calls
SI        -1.3743977768        0.1180900817       -0.6026655143
SI         0.5706424457       -0.0072751419        1.4144021711
SI         1.2673134738       -0.3640751453       -0.3196639345
SI        -0.5298940880        0.8058000707       -0.9527270926
SI         0.8672820165       -0.7982551359        0.6592321096
SI        -0.8864899251       -0.7851554411       -0.0988769902
SI        -0.2096136048        0.6556635432        0.9299206058
SI         0.1270655801        1.1373577811       -0.0733932260
SI        -0.4510066752       -0.3164963729       -1.0360065051
SI        -0.2035594128       -0.4742121500        0.7718179221
SI         0.4401463653        0.2853774861       -0.7485010159
SI         0.2139785625       -0.6803666886       -0.2321285619
SI         0.6022185245        0.2184747420        0.3357659891
SI        -0.4336854856        0.2050723708       -0.0471759571
          14
Energy of minimum     23=    -45.05228227     first found at step      140 after                 5094 function calls
SI        -0.7401939728        0.3677336356        1.1801801073
SI        -0.8606819084        0.4615384178       -1.0838714597
SI         0.3862284416       -0.9699629669       -0.8789605769
SI         0.9108955282        0.8695029540        0.2034595210
SI         0.0751903829       -0.4454997320        1.2798637733
SI         0.1822442510        0.0617739257       -1.3390957837
SI         1.0275368882       -0.1540296741        0.7036725681
SI        -0.9447978085        0.4990891549        0.0544574745
SI        -0.7629513837       -0.5291730944        0.5338985050
SI         0.0200027897        0.7886408724       -0.5014807535
SI         0.2770436863       -0.8467073173        0.2488999482
SI         0.7433229270       -0.0539084131       -0.3800346435
SI        -0.3595220338       -0.2846332702       -0.4535612897
SI         0.0456822124        0.2356355075        0.4325726097
          14
Energy of minimum     24=    -45.04312790     first found at step     2082 after               101877 function calls
SI        -0.4149546176        1.0975122212       -0.8023518287
SI         0.7629322511        0.9771964861        0.6953490312
SI        -1.1028316136       -0.6025515574       -0.4539882836
SI         0.1293139590       -0.7284095699        1.1127033331
SI        -0.1284150270       -1.1332966322       -0.7340626744
SI         0.5917672267       -1.2068599424        0.1816598867
SI        -0.2606699067        1.3210712226        0.3111337704
SI         0.7097251717       -0.4118190088       -0.5912557647
SI         0.8337826984       -0.1404711183        0.4942006128
SI        -0.2902456116       -0.0256567878       -0.9350182795
SI        -0.1299175278        0.3466345643        0.8497125355
SI        -0.8265551053        0.4177928941       -0.0360726163
SI         0.2961724586        0.5247817406       -0.1907711725
SI        -0.1701043557       -0.4359245119        0.0987614502
          14
Energy of minimum     25=    -45.03370776     first found at step     1071 after                54909 function calls
SI         0.0302479114        0.1953259145        1.5184553685
SI         0.6441460817       -1.3384273656        0.3721046458
SI         0.4805794073        0.2852747325       -1.1400841255
SI         0.1269966300        1.1686602418       -0.4798282487
SI        -1.1377923551       -0.2072779079       -0.3319886873
SI        -0.8724622942        0.8633212473        0.0273033146
SI        -0.2982430705       -0.5712988007       -1.0449537084
SI         0.9205336348        0.4505443532       -0.1098354685
SI         0.1037387525        0.8036611493        0.5872295436
SI         0.6631031444       -0.5938458252       -0.4572886006
SI        -0.6619911795       -0.0339909031        0.6776000583
SI        -0.3185484166       -0.8920427606        0.0362789424
SI         0.4372130649       -0.2706814517        0.5962947039
SI        -0.1175213110        0.1407773761       -0.2512877380
          14
Energy of minimum     26=    -45.03370776     first found at step        5 after                  658 function calls
SI         0.2460180519       -1.2827288182       -0.7992845255
SI        -0.6808370685        0.4292660515       -1.3026762448
SI         0.4604573241        1.0748961140        0.4946791381
SI         0.9942918018        0.0888500024        0.7846142637
SI        -0.8542263116       -0.2220108395        0.8177778787
SI        -0.6851192600        0.8830416383        0.5080438627
SI         0.1818291287       -0.7182994577        0.9788991567
SI         0.9013864546        0.3997029062       -0.3002936281
SI        -0.1083348625        0.8820509401       -0.4601317256
SI         0.7361859025       -0.6778640732       -0.0014572783
SI        -0.9051616481        0.0924403699       -0.2658321107
SI        -0.3866364284       -0.8653279984        0.0157882808
SI         0.0678063289       -0.1872845088       -0.7617859942
SI         0.0323405866        0.1032676733        0.2916589266
          14
Energy of minimum     27=    -45.03024235     first found at step      915 after                43039 function calls
SI         1.3613992649        0.1476307828       -0.2358177900
SI        -0.1060830485        0.3595108732       -1.2854254295
SI        -1.0026403679        0.3969429115        0.6567207096
SI        -0.1009124696       -0.7017319042        1.0195947323
SI        -0.1413089826        1.0707490885        0.4863665281
SI        -0.9995220013       -0.6568287611        0.3393974449
SI         0.7699347951        0.4622240498        0.6553454221
SI        -0.0676243214       -1.1098068557       -0.0436815606
SI         0.8202324329       -0.6085349147        0.3740458702
SI        -0.7027213791        0.6799243852       -0.3980411626
SI        -0.6469675854       -0.3994208679       -0.6842159969
SI         0.4365739512        0.7348323494       -0.3987974828
SI         0.4775097634       -0.3621261276       -0.6725198812
SI        -0.0978700518       -0.0133650090        0.1870285964
          14
Energy of minimum     28=    -45.00630476     first found at step      810 after                34930 function calls
SI        -1.3087505629       -0.8289675704        0.3420468204
SI        -0.5849510373       -0.1439512495       -1.4032912828
SI         1.1134866385        0.3655546792        0.6296814619
SI         0.5185729533        1.1558757927        0.0263217281
SI         0.3505794524       -0.3632322607        1.1155319750
SI        -0.6124512429        0.9158503884        0.1345626562
SI        -0.7087989865       -0.0154981545        0.8156598373
SI         0.9010891940       -0.6433811711        0.1677942335
SI         0.9982462295        0.2709405260       -0.4930356807
SI        -0.0379139271        0.6071755791       -0.7874644869
SI        -0.1989905856       -0.8771073419        0.2750689981
SI         0.2012144638       -0.4938152574       -0.6975047760
SI        -0.7828167484       -0.1013363676       -0.3113285413
SI         0.1514841593        0.1518924077        0.1859570572
          14
Energy of minimum     29=    -44.98318669     first found at step      248 after                11054 function calls
SI        -1.5102336749       -0.5976166232        0.1386780872
SI         1.3236058053        0.9253055921       -0.2214954314
SI         0.8662848986        0.2140743605       -0.9927929272
SI        -0.8429918978       -0.2549731792        1.0031293495
SI        -0.8311035710       -0.6981123131       -0.7770593326
SI         0.8543965719        0.6572134940        0.7873957549
SI        -0.2732986268        0.2589971228       -1.0551913089
SI        -0.2857353542        0.7225779727        0.8071163039
SI        -0.4885569891       -1.0080007195        0.2476571416
SI         1.1386806932       -0.1335134970        0.0408395269
SI         0.2167202872       -0.5074680534       -0.4405761604
SI         0.2095725368       -0.2410346024        0.6297464041
SI        -0.6594354200        0.0782832647       -0.0238907046
SI         0.2820947407        0.5842671809       -0.1435567030
          14
Energy of minimum     30=    -44.97619106     first found at step       96 after                 3705 function calls
SI        -0.1764181995       -0.1059252312       -1.5703074419