          38
Energy of minimum      1=    -173.9284257     first found at step    12264 after              1692665 function calls
SI        -1.1362086061       -0.3793596934        1.2751503562
SI         1.1371143168       -1.2883219370       -0.3289158125
SI         1.6725017213       -0.0823571137        0.5068799423
SI         0.2653435721       -1.0630853996        1.3639175086
SI        -1.6724821437        0.0824159797       -0.5069008091
SI        -1.1371314598        1.2882884624        0.3288865024
SI        -1.6220477766        0.3256338654        0.5691358930
SI         0.7538310109        1.5685433048        0.1796126427
SI        -0.3194548348       -0.8490531391       -1.4959630326
SI         1.2373160301        0.8669887092        0.8821947617
SI         0.1640002224       -1.5506491478       -0.7933882834
SI        -0.2652473437        1.0630705588       -1.3639316257
SI        -1.1876100029        1.0450911355       -0.7471614736
SI         1.1361608083        0.3793602689       -1.2751461203
SI        -0.7538546341       -1.5684971445       -0.1795365445
SI         0.3194054636        0.8489932069        1.4959712206
SI        -1.2373311108       -0.8669571230       -0.8821539868
SI        -0.1640518654        1.5506036643        0.7934175283
SI         0.1677873752        0.1183062081       -1.7374134407
SI         0.7031290609        1.3241468727       -0.9016820390
SI         1.1876757946       -1.0450660268        0.7471113914
SI         1.6219988443       -0.3256392071       -0.5691529577
SI        -0.7030818331       -1.3240915792        0.9017403397
SI        -0.1678093860       -0.1183783863        1.7373857741
SI        -0.7493587473        0.0984112815       -1.1177376113
SI        -0.2153043775        1.3013623389       -0.2839954000
SI         0.7493741816       -0.0984108567        1.1177128817
SI         0.2153259465       -1.3013557232        0.2839998120
SI         0.6486418981       -0.5836383917       -1.0291638574
SI         1.1826985070        0.6193314700       -0.1954271621
SI        -1.1826872280       -0.6192857782        0.1954446130
SI        -0.6486746383        0.5835884988        1.0291373325
SI        -0.2158022026       -0.3574526157        0.6539875933
SI        -0.6962511555        0.3396825253       -0.0441234002
SI         0.2158175597        0.3574537260       -0.6539928978
SI         0.6962611424       -0.3396751331        0.0441037860
SI         0.2659703513        0.5990931575        0.4152146100
SI        -0.2659644609       -0.5990908384       -0.4152180350
