          52
Energy of minimum      1=    -43.37767556     first found at step      321 after               170810 function calls
HH31       -3.3893119600        1.4971860153        2.2461016618
CH3        -2.3679515481        1.2291672692        2.5135181658
HH32       -1.7621193762        2.1312517420        2.5911469625
HH33       -2.3671310999        0.7050449480        3.4683968081
C          -1.7949419205        0.3269985854        1.4477007317
O          -0.7892243322        0.6696336079        0.8297502951
N          -2.4286334804       -0.8280661333        1.2380932940
H          -3.2482622082       -1.0112515939        1.7999432465
CA         -2.0741314639       -1.8312321687        0.2213937312
HA         -2.6101968244       -2.7432945361        0.4891462908
CB         -2.6312706166       -1.3779676897       -1.1385992506
HB1        -2.1260778118       -0.4698621814       -1.4666208491
HB2        -3.7005680099       -1.1802627266       -1.0532177640
HB3        -2.4791999968       -2.1613738670       -1.8821544208
C          -0.5760313415       -2.2329966360        0.2085270362
O           0.0295834227       -2.4177532939       -0.8516115758
N           0.0482000612       -2.3139502541        1.3906529165
H          -0.5010348879       -2.1543064651        2.2238287900
CA          1.4678440103       -2.6520639970        1.5626983150
HA          1.6842380565       -3.5392761584        0.9647666396
CB          1.6864837790       -3.0122119110        3.0381581974
HB1         1.4873029450       -2.1448384472        3.6697081907
HB2         1.0219361562       -3.8288303465        3.3243262230
HB3         2.7184223243       -3.3321355268        3.1893829760
C           2.4446519143       -1.5430486857        1.0994888505
O           3.6359366366       -1.8092803306        0.9127936680
N           1.9497210835       -0.3155941513        0.8963029540
H           0.9652653730       -0.1712697093        1.0908430894
CA          2.6994692224        0.8604443191        0.4396253793
HA          3.7437292192        0.5809644524        0.2926964316
CB          2.6540657237        1.9090507245        1.5610375342
HB1         1.6273237279        2.2433423668        1.7178800416
HB2         3.2722235712        2.7667738186        1.2931676355
HB3         3.0377106072        1.4784201433        2.4870070621
C           2.2062271791        1.4122939521       -0.9221863322
O           2.5978540111        2.5112629866       -1.3285815858
N           1.3416445976        0.6729582808       -1.6309606558
H           1.0709789827       -0.2264710129       -1.2588599572
CA          0.7926950505        1.0585929757       -2.9368481365
HA          1.5729641281        1.5731492174       -3.5005668890
CB          0.4454015799       -0.2262365460       -3.7005199961
HB1         1.3272833016       -0.8639866495       -3.7760063998
HB2         0.1074572544        0.0245161252       -4.7068277729
HB3        -0.3479449692       -0.7680577114       -3.1852725745
C          -0.4136226520        2.0267616020       -2.8594617020
O          -0.7935991992        2.6175919512       -3.8766038559
N          -1.0180311858        2.2046896009       -1.6754812014
H          -0.6660403654        1.6737005032       -0.8855626075
CH3        -2.1672140920        3.0781433813       -1.4391808302
HH31       -2.4427987945        3.0529810529       -0.3831737864
HH32       -3.0198569592        2.7451333743       -2.0344397125
HH33       -1.9214188236        4.1055657337       -1.7153452622
          52
Energy of minimum      2=    -42.18920900     first found at step      272 after               145114 function calls
HH31       -3.4055911774        1.6900043506       -0.6638419721
CH3        -3.1226416349        1.8485475155        0.3758678426
HH32       -2.6158440027        2.8059441871        0.4792848643
HH33       -4.0167522931        1.8493316533        0.9983374725
C          -2.2034248846        0.7327903052        0.8183097270
O          -1.0116895615        0.9589226836        1.0311965507
N          -2.7610288509       -0.4701334609        0.9519273411
H          -3.7430060430       -0.5587269713        0.7367076979
CA         -2.0552580589       -1.6698249904        1.4127193952
HA         -1.6042035521       -1.4424115785        2.3808118407
CB         -3.0838467312       -2.7887055727        1.6280320331
HB1        -3.8448004330       -2.4624847018        2.3387018017
HB2        -3.5612866129       -3.0455988359        0.6809065865
HB3        -2.5888886665       -3.6749094465        2.0279510998
C          -0.9184794116       -2.1113143843        0.4638150531
O          -0.9348685205       -1.8296843689       -0.7390099898
N           0.0873223671       -2.8032163829        1.0110889714
H           0.0323479763       -3.0341565055        1.9939013011
CA          1.2656416836       -3.2637572162        0.2649579723
HA          0.9264669043       -3.7655036545       -0.6432483303
CB          1.9979960666       -4.2965638633        1.1315011697
HB1         2.8484684772       -4.7007303561        0.5805500255
HB2         2.3589420082       -3.8294181551        2.0493124767
HB3         1.3230585658       -5.1159238765        1.3835286758
C           2.2086460214       -2.1163476850       -0.1695381596
O           2.9973223871       -2.2819532102       -1.1048603412
N           2.1184028582       -0.9485924879        0.4811318656
H           1.4703334975       -0.8892787294        1.2534689701
CA          2.9152266440        0.2440111685        0.1747052124
HA          3.9240029387       -0.0707100720       -0.0987417927
CB          3.0163334446        1.0783151229        1.4587563178
HB1         2.0264230186        1.4246323789        1.7606346341
HB2         3.6577045014        1.9436216170        1.2856940622
HB3         3.4490298202        0.4770230811        2.2597547883
C           2.3658714198        1.0818864259       -1.0037736151
O           3.0741284571        1.9503983897       -1.5228654749
N           1.1169106565        0.8479322540       -1.4287976144
H           0.5849120073        0.1211897309       -0.9707910799
CA          0.4641953829        1.5880320380       -2.5151406497
HA          1.1630274886        1.6640633386       -3.3501985728
CB         -0.7440047631        0.7692286517       -2.9870910267
HB1        -1.4730293995        0.6760122204       -2.1815467079
HB2        -0.4205949696       -0.2253411092       -3.2975188023
HB3        -1.2147336439        1.2661770386       -3.8363384905
C           0.0559701589        3.0304376091       -2.1291843262
O          -0.1131811474        3.8803610497       -3.0104937298
N          -0.0879871530        3.3220811432       -0.8279047430
H           0.0237514519        2.5607256343       -0.1691671195
CH3        -0.4226962394        4.6423758105       -0.2937855845
HH31       -1.3816005063        4.9775548894       -0.6945063686
HH32       -0.4910070249        4.5988125288        0.7949267258
HH33        0.3480090780        5.3648747985       -0.5701379836
          52
Energy of minimum      3=    -42.03251132     first found at step      316 after               167431 function calls
HH31       -3.4217826826        0.9171282944        2.6176861972
CH3        -2.3798188663        0.6594259566        2.8032431590
HH32       -2.3163540022       -0.0012756140        3.6669286385
HH33       -1.8077290910        1.5666504600        2.9942112398
C          -1.8184057649       -0.0455356871        1.5923886846
O          -0.8564989128        0.4329750848        0.9950271463
N          -2.4133342441       -1.1848868800        1.2346661079
H          -3.1995717925       -1.4879158610        1.7924271764
CA         -2.0597595835       -2.0097187851        0.0684022932
HA         -2.5489539085       -2.9744816209        0.2129054173
CB         -2.6846442414       -1.3840894414       -1.1902531373
HB1        -2.2322404232       -0.4131567207       -1.3907379062
HB2        -2.5255540126       -2.0382716302       -2.0485070650
HB3        -3.7578369526       -1.2540138507       -1.0445371024
C          -0.5485659847       -2.3364087179       -0.0506152142
O           0.0288398987       -2.3105662845       -1.1422250688
N           0.1179028210       -2.5805721556        1.0855310146
H          -0.4098601600       -2.5849717899        1.9474379829
CA          1.5553663986       -2.8781162023        1.1641338944
HA          1.7753810216       -3.6915677892        0.4703311775
CB          1.8534086389       -3.3730495363        2.5855042560
HB1         1.6492745687       -2.5819700798        3.3089882173
HB2         1.2344676805       -4.2418601328        2.8145386148
HB3         2.9027478919       -3.6616299700        2.6614188608
C           2.4691886253       -1.6893523149        0.7770325264
O           3.6481425376       -1.8901347368        0.4698592965
N           1.9266373882       -0.4658075744        0.7593601516
H           0.9592272543       -0.3809433708        1.0503931689
CA          2.5799829513        0.7723659941        0.3217671242
HA          3.5976193139        0.5432516736        0.0020867546
CB          2.6732392016        1.7108906269        1.5341642456
HB1         3.1924650501        1.2092500910        2.3519318666
HB2         3.2304054118        2.6095387384        1.2667556441
HB3         1.6724727903        1.9947185528        1.8634713479
C           1.8783710303        1.4176649618       -0.9011960831
O           2.0756934968        2.6047707926       -1.1803127828
N           1.0460641006        0.6483763368       -1.6208818405
H           0.9568084602       -0.3207940053       -1.3445306263
CA          0.2111031146        1.0875891785       -2.7481580070
HA         -0.4607666297        0.2552904957       -2.9631972056
CB          1.0880424157        1.2618854574       -3.9998511331
HB1         1.7563901717        2.1145192677       -3.8758729738
HB2         0.4561986921        1.4302141929       -4.8727227426
HB3         1.6803228717        0.3612285436       -4.1666738045
C          -0.7283936947        2.2836534778       -2.4357567086
O          -1.0476510900        3.0875207407       -3.3199305443
N          -1.1765731947        2.4103666372       -1.1777986593
H          -0.8817926545        1.7098969271       -0.5047852743
CH3        -2.0646137096        3.4699252080       -0.7008260162
HH31       -1.5948864068        4.4452716091       -0.8433321490
HH32       -3.0071476894        3.4463395443       -1.2515805389
HH33       -2.2730281054        3.3303819076        0.3616903792
          52
Energy of minimum      4=    -42.03251132     first found at step      291 after               155522 function calls
HH31       -3.1110120726        1.2211733597        2.8692060231
CH3        -2.1322750672        0.7545216757        2.9733239871
HH32       -1.3931014319        1.5108590658        3.2348347974
HH33       -2.1715681145       -0.0036028872        3.7544834943
C          -1.7489504069        0.1053515263        1.6656678911
O          -0.7306076626        0.4640473005        1.0779659489
N          -2.5592894615       -0.8535374272        1.2141049804
H          -3.3729819083       -1.0689801855        1.7731957347
CA         -2.4014766419       -1.5863280882       -0.0522468449
HA         -3.0609120382       -2.4537265839        0.0087808078
CB         -2.9307907077       -0.7116634525       -1.2015487123
HB1        -3.9552273259       -0.4027707648       -0.9893923012
HB2        -2.3078436393        0.1751811107       -1.3156424252
HB3        -2.9228476686       -1.2781933532       -2.1336670611
C          -0.9838226518       -2.1714611794       -0.2813188448
O          -0.4425903637       -2.1247351402       -1.3906257204
N          -0.3446002918       -2.6672702846        0.7864792710
H          -0.8394215121       -2.6752143262        1.6676861654
CA          1.0117275699       -3.2335823288        0.7604449657
HA          1.0537588382       -3.9861772260       -0.0290526070
CB          1.2496475944       -3.9392697543        2.1018923939
HB1         1.2197737712       -3.2149457015        2.9175937395
HB2         2.2267075711       -4.4244874311        2.0933971587
HB3         0.4834675893       -4.6989483719        2.2638587468
C           2.1237168334       -2.1978746171        0.4623384289
O           3.2340198712       -2.5763401257        0.0768616874
N           1.8233286064       -0.9014925462        0.6068940566
H           0.8981497912       -0.6734672170        0.9530632767
CA          2.6876795548        0.2367103410        0.2770251428
HA          3.6339364698       -0.1379801118       -0.1160112439
CB          2.9912685008        0.9920452377        1.5796129315
HB1         3.7014287628        1.7968196846        1.3859109353
HB2         3.4282062536        0.3099169301        2.3102078696
HB3         2.0722339624        1.4158447066        1.9874172890
C           2.0877967772        1.1405956670       -0.8308742256
O           2.4993137717        2.2949341557       -0.9864986366
N           1.1047767933        0.6294375462       -1.5890803196
H           0.8406588810       -0.3320286450       -1.4174638600
CA          0.3375178425        1.3457485670       -2.6181728971
HA         -0.4860054407        0.6838587289       -2.8903551009
CB          1.1964730096        1.5005752089       -3.8848070704
HB1         2.0178744815        2.1936904631       -3.7005936242
HB2         1.6019070495        0.5316989032       -4.1792739789
HB3         0.5841332150        1.8849443329       -4.7013646278
C          -0.3484755408        2.6500839159       -2.1293569685
O          -0.5335715348        3.5977587172       -2.9023661392
N          -0.7292700482        2.7085879662       -0.8444630570
H          -0.5544106753        1.8912148536       -0.2684198407
CH3        -1.3861371520        3.8508082357       -0.2099225345
HH31       -1.5876665098        3.6281113435        0.8396688125
HH32       -0.7437400865        4.7319093785       -0.2668358736
HH33       -2.3309074072        4.0676488268       -0.7125620208
          52
Energy of minimum      5=    -42.02609887     first found at step       54 after                27144 function calls
HH31       -1.9290116455        1.8376493374        4.3049234725
CH3        -1.3974675255        1.9952455885        3.3673660392
HH32       -0.5745097726        2.6913135978        3.5252030909
HH33       -2.0842813081        2.4049945304        2.6282186596
C          -0.8564324504        0.6716638277        2.8761838599
O           0.3582508593        0.4785823135        2.8288174513
N          -1.7561867009       -0.2406868695        2.5100793206
H          -2.7328131689        0.0063060168        2.5707817744
CA         -1.4178226236       -1.5887019498        2.0425992860
HA         -0.8160618632       -2.0711481854        2.8154706027
CB         -2.7136819169       -2.3957385851        1.8864075958
HB1        -2.4777872033       -3.4184634786        1.5885317339
HB2        -3.2521100387       -2.4219319001        2.8349942555
HB3        -3.3480024224       -1.9409582110        1.1236108525
C          -0.5894501228       -1.5806679277        0.7395981258
O          -0.7584873869       -0.7071874955       -0.1167557257
N           0.3113651734       -2.5598079178        0.5887648599
H           0.3771052496       -3.2499374142        1.3248777694
CA          1.2107017691       -2.7302099046       -0.5640092920
HA          1.9584153087       -3.4653436538       -0.2614408471
CB          0.4209212755       -3.3606308608       -1.7237145467
HB1         1.1007564436       -3.6272258284       -2.5339095546
HB2        -0.3215672406       -2.6556528558       -2.0990870939
HB3        -0.0838630532       -4.2646994812       -1.3806126448
C           2.0250686722       -1.4663562347       -0.9510031999
O           2.3480571933       -1.2545410029       -2.1243125488
N           2.3337332149       -0.6001802654        0.0239089817
H           2.0550457284       -0.8279007876        0.9682393371
CA          3.0522279619        0.6623023295       -0.1879993043
HA          3.8814593333        0.4767806775       -0.8732116980
CB          3.6474243519        1.1000246024        1.1565341994
HB1         4.2854075207        0.3103681928        1.5560320413
HB2         2.8498469087        1.3160121849        1.8684540288
HB3         4.2492275601        1.9988770701        1.0157543476
C           2.1851290819        1.7791412000       -0.8176280627
O           2.7309213015        2.7397957196       -1.3697936632
N           0.8523379628        1.6563775448       -0.7593622980
H           0.4773542517        0.8450162774       -0.2835348508
CA         -0.1140206531        2.5915979245       -1.3487089555
HA          0.4004172983        3.5049490833       -1.6515866702
CB         -1.1242558383        2.9709727177       -0.2589519241
HB1        -1.6785440994        2.0877200325        0.0619375044
HB2        -1.8264725565        3.7078528301       -0.6511011459
HB3        -0.6022294957        3.4026914034        0.5961439884
C          -0.8174286568        2.0318252910       -2.6067309005
O          -1.1747953923        2.7993305509       -3.5070144687
N          -1.0011370173        0.7061627687       -2.6910821449
H          -0.7302122780        0.1494015935       -1.8876347567
CH3        -1.6151910322        0.0103897947       -3.8216201083
HH31       -1.0137933445        0.1539852273       -4.7216222244
HH32       -2.6198055807        0.3988648761       -4.0012521197
HH33       -1.6837520323       -1.0582242950       -3.6097524290
          52
Energy of minimum      6=    -42.02609887     first found at step       47 after                23270 function calls
HH31       -2.1595434029        1.9750663065        4.1310885003
CH3        -1.5976035666        2.1058086128        3.2072271782
HH32       -0.8064913901        2.8389172284        3.3601191543
HH33       -2.2689803078        2.4527531769        2.4231168808
C          -0.9914595218        0.7806012839        2.8044089708
O           0.2301956798        0.6306798833        2.8122660714
N          -1.8434908830       -0.1815150045        2.4517776400
H          -2.8298410420        0.0317181193        2.4633761369
CA         -1.4398032614       -1.5374684849        2.0662922864
HA         -0.8521203198       -1.9584663945        2.8845770619
CB         -2.6993151637       -2.3988221400        1.9030288475
HB1        -2.4160537703       -3.4255384701        1.6664720696
HB2        -3.2731922719       -2.3981236134        2.8309685888
HB3        -3.3189318899       -2.0061495583        1.0949880583
C          -0.5618758529       -1.5630217259        0.7963835936
O          -0.7279473712       -0.7397821590       -0.1089232379
N           0.3780934073       -2.5142708460        0.7291757631
H           0.4392554599       -3.1642858888        1.5013171658
CA          1.3272954756       -2.7078635310       -0.3790970827
HA          2.0880356153       -3.3988697214       -0.0119054258
CB          0.6062046743       -3.4236944910       -1.5339625202
HB1        -0.1454062844       -2.7661877391       -1.9720875809
HB2         1.3261940310       -3.7045331542       -2.3036440503
HB3         0.1205513008       -4.3278453990       -1.1644789083
C           2.1111418871       -1.4352809098       -0.7990995850
O           2.4721307473       -1.2698141548       -1.9687789868
N           2.3507083799       -0.5111468436        0.1414175540
H           2.0434795532       -0.7021506518        1.0850335576
CA          3.0320129728        0.7651518580       -0.1073550099
HA          3.8934436743        0.5769542655       -0.7508437673
CB          3.5583477076        1.2905502602        1.2344937660
HB1         4.1331522742        2.2030911912        1.0708154603
HB2         4.2076380858        0.5458354185        1.6970952148
HB3         2.7264084687        1.5116503287        1.9042714320
C           2.1514013269        1.8165465288       -0.8247909165
O           2.6841928259        2.7683741934       -1.4042651783
N           0.8225050597        1.6473776268       -0.8101422079
H           0.4580116602        0.8471340378       -0.3080601310
CA         -0.1524051853        2.5158024801       -1.4818593584
HA          0.3409876840        3.4315631190       -1.8113097944
CB         -1.2172492746        2.9107365158       -0.4512261056
HB1        -1.9291117166        3.6007524309       -0.9062113095
HB2        -0.7446196423        3.4032537106        0.3997319371
HB3        -1.7522025272        2.0244257714       -0.1068148923
C          -0.7858860380        1.8688388537       -2.7352098697
O          -1.1345728482        2.5771394960       -3.6860061244
N          -0.9193270557        0.5347192324       -2.7589447309
H          -0.6605990179        0.0287659963       -1.9187173497
CH3        -1.4637742301       -0.2383691569       -3.8748255784
HH31       -2.4736551617        0.1031664990       -4.1113099039
HH32       -1.5028746004       -1.2970251315       -3.6116843938
HH33       -0.8330543539       -0.1171492557       -4.7578888896
          52
Energy of minimum      7=    -42.02609887     first found at step      164 after                83184 function calls
HH31       -2.2246636172        1.7150509519        4.2118734191
CH3        -1.6182497693        1.8962946580        3.3254183226
HH32       -0.7968321613        2.5671541868        3.5742220161
HH33       -2.2368701168        2.3492754202        2.5520726617
C          -1.0661877115        0.5805760220        2.8254587971
O           0.1444840961        0.3621745436        2.8648817104
N          -1.9520185503       -0.2966844560        2.3546171924
H          -2.9254101553       -0.0302864362        2.3491028722
CA         -1.6042989160       -1.6331586138        1.8615651004
HA         -1.0745119264       -2.1581390291        2.6590121327
CB         -2.8993578028       -2.4043060851        1.5732781765
HB1        -2.6607523171       -3.4199729260        1.2541687306
HB2        -3.5109434093       -2.4545415830        2.4754128819
HB3        -3.4629260900       -1.9066165042        0.7822393450
C          -0.6762693911       -1.5940684326        0.6281508359
O          -0.7605967032       -0.6849840515       -0.2033165960
N           0.2143940867       -2.5867540402        0.5088702613
H           0.2087588662       -3.3057586047        1.2198297396
CA          1.1979020207       -2.7332501874       -0.5764787276
HA          1.9051428103       -3.4960172893       -0.2462641754
CB          0.4894175568       -3.3010638919       -1.8181459311
HB1         1.2253991273       -3.5517875340       -2.5830861030
HB2        -0.2074906050       -2.5657638603       -2.2216810742
HB3        -0.0582068480       -4.2059789661       -1.5514955615
C           2.0645343927       -1.4741909576       -0.8485118622
O           2.4826216922       -1.2251003171       -1.9838527652
N           2.3125556643       -0.6529861482        0.1810980039
H           1.9562768369       -0.9102301661        1.0911387041
CA          3.0698688157        0.6001820603        0.0759868568
HA          3.9465304031        0.4223260616       -0.5496253824
CB          3.5661605636        0.9728130988        1.4790087731
HB1         4.1553665049        0.1543478968        1.8950969476
HB2         2.7195467087        1.1793745793        2.1348956491
HB3         4.1945143647        1.8626194226        1.4212330301
C           2.2767100708        1.7594380743       -0.5741259319
O           2.8827078807        2.7279348522       -1.0436083631
N           0.9413211456        1.6645451804       -0.6244225824
H           0.5144639484        0.8442654580       -0.2117898614
CA          0.0425363723        2.6430570348       -1.2493354946
HA          0.5968083625        3.5554939937       -1.4747972844
CB         -1.0425001281        3.0032196073       -0.2270588893
HB1        -1.6373197932        2.1210609281        0.0144497681
HB2        -1.6973318031        3.7701248743       -0.6429115303
HB3        -0.5808620892        3.3901643158        0.6824715765
C          -0.5707738268        2.1476293730       -2.5794292782
O          -0.8414295964        2.9567529425       -3.4734932094
N          -0.7730397750        0.8306151076       -2.7304489130
H          -0.5768497721        0.2376659552       -1.9311794274
CH3        -1.3099327604        0.1924492577       -3.9320181942
HH31       -0.6371136115        0.3567031307       -4.7761969036
HH32       -1.4156649867       -0.8816552261       -3.7687856863
HH33       -2.2896180579        0.6099863192       -4.1734937766
          52
Energy of minimum      8=    -42.02609887     first found at step       37 after                18962 function calls
HH31       -1.9089802930        1.9289013347        4.2738202171
CH3        -1.4067290917        2.0704602329        3.3177373314
HH32       -0.6120990169        2.8075803082        3.4268231193
HH33       -2.1279383001        2.4189873509        2.5799485156
C          -0.8188761493        0.7524258305        2.8671135746
O           0.4017723465        0.6105222306        2.7973983264
N          -1.6853971909       -0.2125555728        2.5606397332
H          -2.6703758833       -0.0059388135        2.6355798402
CA         -1.2983284992       -1.5628053830        2.1397172542
HA         -0.6580571246       -1.9861975734        2.9162428948
CB         -2.5602972139       -2.4311787050        2.0485140216
HB1        -2.2861148486       -3.4541501039        1.7864146107
HB2        -3.0750096409       -2.4414138841        3.0104776072
HB3        -3.2316255206       -2.0364000451        1.2839784262
C          -0.5014020129       -1.5727829400        0.8172626550
O          -0.7287980775       -0.7437161686       -0.0692038706
N           0.4383223131       -2.5172544022        0.6837492528
H           0.5516288140       -3.1727739341        1.4452730377
CA          1.3175186500       -2.6960359061       -0.4832050535
HA          2.1039451192       -3.3848050247       -0.1698756074
CB          0.5300023213       -3.4077081170       -1.5965068057
HB1        -0.2515444489       -2.7518304943       -1.9814703488
HB2         1.2021484932       -3.6778515361       -2.4119249430
HB3         0.0739451491       -4.3178651222       -1.2047258885
C           2.0657672411       -1.4151067988       -0.9410571446
O           2.3518769769       -1.2382619853       -2.1296315994
N           2.3580316200       -0.4966747217       -0.0099006413
H           2.1115932795       -0.6969603094        0.9494934405
CA          3.0146274851        0.7859749086       -0.2904250691
HA          3.8352610151        0.6084314146       -0.9879907551
CB          3.6206319810        1.3044981402        1.0201175963
HB1         4.1784844725        2.2220499994        0.8282295703
HB2         4.3021243624        0.5605521650        1.4351968835
HB3         2.8308746026        1.5149351663        1.7423431836
C           2.0844579084        1.8370173747       -0.9428943792
O           2.5741351723        2.7967763974       -1.5468081990
N           0.7601385797        1.6589627258       -0.8465988329
H           0.4326597282        0.8524876583       -0.3292138585
CA         -0.2601652549        2.5260697450       -1.4490281853
HA          0.2060486900        3.4475792066       -1.8012447842
CB         -1.2608615896        2.9060149401       -0.3507025274
HB1        -2.0039919996        3.5947923574       -0.7547130446
HB2        -0.7389567947        3.3950815318        0.4730151422
HB3        -1.7677979418        2.0135640529        0.0192809269
C          -0.9668254172        1.8845986459       -2.6655369930
O          -1.3786184974        2.5978757069       -3.5869207899
N          -1.0933298971        0.5498484871       -2.6916839060
H          -0.7794702253        0.0391648740       -1.8733897798
CH3        -1.7017632492       -0.2182105278       -3.7775810762
HH31       -2.7265263305        0.1184544864       -3.9477228771
HH32       -1.7178570108       -1.2790953690       -3.5210875264
HH33       -1.1282588007       -0.0860338339       -4.6973226747
          52
Energy of minimum      9=    -42.01818687     first found at step      252 after               134083 function calls
HH31       -5.4295806532        0.9039641225       -0.8409155818
CH3        -4.6069088701        0.2005859825       -0.9627969546
HH32       -3.9133882681        0.5790348049       -1.7121315971
HH33       -4.9960601200       -0.7647883271       -1.2836495420
C          -3.8808474343        0.0334608629        0.3531793248
O          -4.2713147288        0.6338360313        1.3544468449
N          -2.8309249841       -0.7865116723        0.3461954098
H          -2.5889726163       -1.2290416281       -0.5286831369
CA         -1.9852524497       -1.0977698726        1.5046819803
HA         -2.0391776942       -0.2751467095        2.2204030700
CB         -2.5357185465       -2.3626062992        2.1812271116
HB1        -3.5738193165       -2.2033359983        2.4764405053
HB2        -2.4846230429       -3.2075642940        1.4925909685
HB3        -1.9512225981       -2.5935213800        3.0728136399
C          -0.5024427505       -1.2658998963        1.1087027154
O          -0.1743425317       -1.4437542404       -0.0696277853
N           0.4066463580       -1.2074488026        2.0883200484
H           0.0872046238       -1.0599108420        3.0353058976
CA          1.8506542982       -1.3274041978        1.8615723931
HA          2.0400563660       -2.2728750774        1.3489961230
CB          2.5649583278       -1.3789378480        3.2184937655
HB1         2.1952942395       -2.2244205622        3.8006244580
HB2         2.3884788108       -0.4551959197        3.7721310675
HB3         3.6379820439       -1.5011414145        3.0635905353
C           2.3734736867       -0.1803828520        0.9708617708
O           2.1241264803        0.9977569920        1.2455417579
N           3.0564573360       -0.5198898345       -0.1280937735