    52
Energy=    -37.1738336533488    
HH        -4.074392002         1.900511229         3.798139315    
CH        -3.006692679         1.822260027         3.999296504    
HH        -2.821994107         1.988205007         5.059964724    
HH        -2.471414751         2.569240335         3.414438446    
C         -2.524651858        0.4433211758         3.607921240    
O         -2.012463205       -0.2954542606         4.449515710    
N         -2.689539617        0.9705603730E-01     2.331984073    
H         -3.114666590        0.7702773724         1.712057313    
CA        -2.263404117        -1.184870798         1.762182095    
HA        -2.582274502        -1.981810044         2.437162461    
CB        -2.988377820        -1.388339228        0.4239824024    
HB        -2.737660919        -2.366421137        0.1070375556E-01
HB        -2.689919333       -0.6148940688       -0.2859506164    
HB        -4.067859580        -1.340259772        0.5759256287    
C        -0.7302351781        -1.293906130         1.605003555    
O        -0.2622577301E-01   -0.2887302503         1.458657323    
N        -0.2113966553        -2.527419222         1.568746703    
H        -0.8401598332        -3.311134600         1.681020000    
CA         1.225975470        -2.819933279         1.466777698    
HA         1.739314504        -2.294408576         2.274183556    
CB         1.415034648        -4.326629739         1.686451619    
HB        0.9149170009        -4.887527336        0.8951114843    
HB         1.000687416        -4.616745654         2.653183855    
HB         2.478804133        -4.568580605         1.675463287    
C          1.874137033        -2.358631517        0.1392774282    
O          3.091239682        -2.161066406        0.7947516280E-01
N          1.071706688        -2.143859789       -0.9114471683    
H         0.9269645501E-01    -2.367964925       -0.8073269944    
CA         1.509214929        -1.594039803        -2.199695090    
HA         2.460062185        -2.057870229        -2.468303297    
CB        0.4733971590        -2.001687917        -3.256042202    
HB       -0.4910964120        -1.543036494        -3.032100650    
HB        0.8033511367        -1.670457504        -4.241601497    
HB        0.3640272497        -3.087128934        -3.270725771    
C          1.740134782       -0.6132716097E-01    -2.188171557    
O          2.301883553        0.4744747952        -3.149723099    
N          1.334260416        0.6327483698        -1.112332137    
H         0.9084690318        0.1061481296       -0.3606050799    
CA         1.358320342         2.093382333       -0.9395056315    
HA        0.8555785952         2.299821502        0.7167293068E-02
CB         2.816752775         2.553621069       -0.7573929331    
HB         2.845364858         3.594007069       -0.4323390561    
HB         3.306085268         1.942871549        0.2830351515E-02
HB         3.363253962         2.462936278        -1.696624638    
C         0.5638475258         2.893607540        -2.007654785    
O        -0.7309604380E-01     2.329367101        -2.906137044    
N         0.5580960504         4.228525549        -1.880334623    
H          1.085941006         4.625304588        -1.114316210    
CH       -0.1480546190         5.153578087        -2.768775258    
HH        0.1953324991E-01     6.183641595        -2.447957111    
HH        -1.220509223         4.948633455        -2.748705589    
HH        0.2139980104         5.040594989        -3.792854943    
    52
Energy=    -36.8082527784538    
HH        -4.051618854         1.921172554         3.809216676    
CH        -2.983191921         1.840710259         4.005581221    
HH        -2.793035115         2.009581856         5.064822034    
HH        -2.448699340         2.584362106         3.415784253    
C         -2.506684138        0.4592285429         3.616403131    
O         -1.992488740       -0.2781967263         4.457958197    
N         -2.678530151        0.1092904755         2.342388015    
H         -3.104785345        0.7816461532         1.722296494    
CA        -2.258506582        -1.175602020         1.774732276    
HA        -2.576274910        -1.969504628         2.453798446    
CB        -2.990369471        -1.381458112        0.4406541124    
HB        -2.744217826        -2.361536547        0.2936639591E-01
HB        -2.693233888       -0.6111115447       -0.2731922837    
HB        -4.068985420        -1.330004026        0.5975587529    
C        -0.7263964499        -1.289231176         1.610632376    
O        -0.2042107951E-01   -0.2864113812         1.457740612    
N        -0.2110138553        -2.524234833         1.575856581    
H        -0.8413095005        -3.305909212         1.693629605    
CA         1.225071134        -2.820899678         1.467926573    
HA         1.743686724        -2.294124548         2.271134617    
CB         1.411205628        -4.327372764         1.691592487    
HB        0.9057973517        -4.889502717        0.9044995505    
HB         1.000760344        -4.613249263         2.661247751    
HB         2.474266803        -4.572184004         1.676270657    
C          1.868031119        -2.365630165        0.1358217083    
O          3.085347645        -2.171486784        0.6951119064E-01
N          1.061104342        -2.152156913       -0.9117182006    
H         0.8201978689E-01    -2.373311210       -0.8021419363    
CA         1.493822864        -1.607700188        -2.203856071    
HA         2.442194235        -2.074832779        -2.475475918    
CB        0.4519269784        -2.016193382        -3.253879731    
HB       -0.5103106723        -1.554331748        -3.026853742    
HB        0.7779981330        -1.689068481        -4.242098248    
HB        0.3397269086        -3.101393058        -3.264435265    
C          1.728674445       -0.7554849067E-01    -2.198518206    
O          2.287126001        0.4556231830        -3.164557847    
N          1.329796345        0.6230657761        -1.122989371    
H         0.9063464224        0.9995358897E-01   -0.3675220590    
CA         1.357923364         2.084255459       -0.9551045664    
HA        0.8612666617         2.294546095       -0.6061159464E-02
CB         2.818473565         2.541774564       -0.7828094302    
HB         2.851481228         3.582790820       -0.4602088219    
HB         3.311072750         1.931644836       -0.2419491132E-01
HB         3.359102832         2.447768443        -1.725109266    
C         0.5585868503         2.883123467        -2.020903588    
O        -0.8324020081E-01     2.314745121        -2.913172484    
N         0.5581170463         4.219104804        -1.893653045    
H          1.094020175         4.606058481        -1.128193132    
CH       -0.1412403114         5.167976009        -2.765521994    
HH       -0.8478432643         5.758740304        -2.179243920    
HH       -0.6915572063         4.651111605        -3.554323411    
HH        0.5790068613         5.843911673        -3.230685102    
    52
Energy=    -37.1738336533530    
HH        -4.025155423         1.940429813         3.830317662    
CH        -2.956128727         1.855698077         4.021555137    
HH        -2.760203811         2.023939603         5.079844599    
HH        -2.421493222         2.597119693         3.429085854    
C         -2.487054204        0.4722623339         3.630294419    
O         -1.971785745       -0.2671158854         4.469476092    
N         -2.666429774        0.1228542402         2.357171661    
H         -3.092961713        0.7968365458         1.739039432    
CA        -2.254314453        -1.163792934         1.787696300    
HA        -2.572027631        -1.956321299         2.468391612    
CB        -2.993381304        -1.366864040        0.4571674579    
HB        -2.753151224        -2.347977243        0.4484620231E-01
HB        -2.696569333       -0.5978089434       -0.2582042539    
HB        -4.071017501        -1.311047007        0.6192289779    
C        -0.7234783034        -1.283621146         1.616282588    
O        -0.1421315442E-01   -0.2836782811         1.459814593    
N        -0.2132455672        -2.520696605         1.579277400    
H        -0.8461185927        -3.299803005         1.700203721    
CA         1.221104509        -2.823172263         1.464607855    
HA         1.745626646        -2.298406670         2.265291938    
CB         1.402204252        -4.330359949         1.687593040    
HB        0.8908204164        -4.890532409        0.9029680552    
HB        0.9951871412        -4.614465532         2.659211887    
HB         2.464183433        -4.579467233         1.667288797    
C          1.859614398        -2.370656101        0.1294284912    
O          3.077380287        -2.181449928        0.5735624354E-01
N          1.048631579        -2.154021330       -0.9143242467    
H         0.6918841035E-01    -2.371213893       -0.8001155353    
CA         1.477467778        -1.611447368        -2.208546484    
HA         2.422591462        -2.082531758        -2.484626655    
CB        0.4289095688        -2.015669687        -3.253579812    
HB       -0.5303208374        -1.549821926        -3.022016240    
HB        0.7516332712        -1.689948210        -4.243360230    
HB        0.3121695458        -3.100396554        -3.263528490    
C          1.718701657       -0.8028633471E-01    -2.204437675    
O          2.274798562        0.4485277902        -3.173116488    
N          1.327760878        0.6200796586        -1.127145659    
H         0.9056690147        0.9885577422E-01   -0.3696076722    
CA         1.363209284         2.081088320       -0.9595253752    
HA        0.8709224041         2.294049483       -0.8811335887E-02
CB         2.826351283         2.532150784       -0.7928880451    
HB         2.865003806         3.573400769       -0.4716620356    
HB         3.318841340         1.920677096       -0.3529040885E-01
HB         3.363237497         2.434672550        -1.736972074    
C         0.5639211994         2.883048997        -2.022769323    
O        -0.8532472342E-01     2.320093114        -2.913215928    
N         0.5682867907         4.218393047        -1.899940941    
H          1.106059486         4.614181101        -1.140342060    
CH       -0.1401360586         5.145185540        -2.784751925    
HH        -1.213692561         4.947498396        -2.753764815    
HH        0.2113552524         5.026362510        -3.811845607    
HH        0.3737301118E-01     6.175168099        -2.469050700    
