    52
Energy=    -39.4439050626131    
HH        -3.996088141         1.296931445         2.775163117    
CH        -3.331231912         1.556227235         1.952249282    
HH        -2.814110240         2.486436709         2.183835610    
HH        -3.912356699         1.678877391         1.039115943    
C         -2.316542888        0.4509337916         1.764737296    
O         -2.272649886       -0.1692671599        0.7024690353    
N         -1.514599984        0.2058350589         2.803355327    
H         -1.638961316        0.7792170806         3.624939774    
CA       -0.4624278491       -0.8201699419         2.855737312    
HA        0.1505113338       -0.6146916077         3.734877807    
CB        -1.140466798        -2.182784434         3.100442676    
HB       -0.3919181029        -2.941873475         3.330935595    
HB        -1.706811376        -2.488480941         2.219272848    
HB        -1.820155139        -2.109097981         3.950909537    
C         0.5097991298       -0.7756372106         1.646615231    
O         0.7596242585        0.2889875060         1.071271211    
N          1.076430151        -1.922095519         1.250251695    
H         0.8508930574        -2.764413635         1.760427209    
CA         2.051469306        -2.032254544        0.1574257706    
HA         2.886804704        -1.364685779        0.3771511340    
CB         2.583871484        -3.471153327        0.1478684753    
HB         1.774514316        -4.169856119       -0.7058746765E-01
HB         3.019442315        -3.713566301         1.118412627    
HB         3.355905977        -3.571857354       -0.6163903789    
C          1.498713978        -1.628182762        -1.230530491    
O          2.277735718        -1.289383512        -2.126196047    
N         0.1708488292        -1.617952840        -1.411781272    
H        -0.4170233924        -1.925048126       -0.6500508996    
CA       -0.4854481032        -1.137695895        -2.632345446    
HA        0.4171756657E-01    -1.548363098        -3.495517782    
CB        -1.917908280        -1.685721072        -2.654543579    
HB        -2.487022919        -1.289431416        -1.812898878    
HB        -2.407760848        -1.390449282        -3.583398143    
HB        -1.900016640        -2.775051075        -2.598127713    
C        -0.4590454807        0.4027023493        -2.768381605    
O        -0.4631165981        0.9197359120        -3.890046450    
N        -0.3946021722         1.135226400        -1.648147466    
H        -0.4275589464        0.6460512184       -0.7626734245    
CA       -0.2357302337         2.593907372        -1.609578388    
HA       -0.6054622142         3.021926580        -2.542902575    
CB        -1.109639584         3.139539579       -0.4740747301    
HB        -1.052780988         4.228754713       -0.4598866030    
HB        -2.147695827         2.843691247       -0.6310228921    
HB       -0.7617239846         2.753899664        0.4851493626    
C          1.237258796         3.035654268        -1.455431641    
O          1.634455610         4.070425903        -2.001979378    
N          2.054586712         2.252491222       -0.7366469111    
H          1.637406851         1.452364838       -0.2730425574    
CH         3.480768327         2.493986499       -0.5208726933    
HH         4.010515244         2.489724984        -1.475706381    
HH         3.898623669         1.713585362        0.1180035847    
HH         3.628959506         3.462049880       -0.3785566916E-01
    52
Energy=    -31.2492205077407    
HH        -4.053320497         1.395622841         1.168611232    
CH        -3.085191079         1.388472189        0.6694820922    
HH        -2.527138665         2.280875468        0.9492282136    
HH        -3.230196590         1.374231427       -0.4101488007    
C         -2.316775114        0.1583341199         1.094184919    
O         -2.030966362       -0.7034346030        0.2642663331    
N         -1.982523461        0.8191174807E-01     2.383763194    
H         -2.271000868        0.8431933437         2.981246746    
CA        -1.211409584        -1.003734901         3.005299362    
HA       -0.8617931899       -0.6363705011         3.971610080    
CB        -2.157421551        -2.180186508         3.310311309    
HB        -1.622655120        -2.955948319         3.860595003    
HB        -2.557826313        -2.598353019         2.385370707    
HB        -2.987719655        -1.831620414         3.926310805    
C         0.7395830159E-01    -1.354714262         2.213835412    
O         0.9250489680       -0.4852106594         2.005522511    
N         0.2212395976        -2.598826009         1.740055677    
H        -0.5087154932        -3.269549558         1.933764755    
CA         1.384956380        -3.063482655        0.9723955676    
HA         2.285168208        -2.834786770         1.545889217    
CB         1.280615917        -4.589010586        0.8436015109    
HB        0.3924035896        -4.857336888        0.2691463019    
HB         1.222364215        -5.043296359         1.833889408    
HB         2.163795302        -4.975981517        0.3332830947    
C          1.546422969        -2.389547840       -0.4133327267    
O          2.629268080        -2.449575284        -1.003522022    
N         0.4977902339        -1.728358529       -0.9207747451    
H        -0.3629770639        -1.730865808       -0.3852369072    
CA        0.4784229767       -0.9733505709        -2.179572819    
HA         1.398031888        -1.182029386        -2.728295231    
CB       -0.6866180622        -1.504131960        -3.028718726    
HB        -1.636563173        -1.281818970        -2.540726470    
HB       -0.6729206668        -1.035163735        -4.013299445    
HB       -0.5911972159        -2.583364326        -3.155971529    
C         0.4388999709        0.5650866276        -1.980798734    
O         0.1818642414         1.293789152        -2.942033625    
N         0.6775147225         1.038929747       -0.7455456939    
H         0.8649255247        0.3367375730       -0.4217576449E-01
CA        0.7104092570         2.425869688       -0.2460165267    
HA       -0.8602078492E-01     2.511209556        0.4945558257    
CB         2.032757790         2.627774937        0.5115176475    
HB         2.072147316         3.638566995        0.9204141782    
HB         2.100485745         1.917457805         1.336090087    
HB         2.882838042         2.476308515       -0.1552379607    
C         0.4544388948         3.562786830        -1.268167402    
O        -0.6289776663         4.158356710        -1.269423092    
N          1.442904526         3.882815253        -2.117788513    
H          2.295458130         3.343257056        -2.058786756    
CH         1.368331184         4.933108794        -3.134108082    
HH        0.5671289032         4.711653691        -3.842260269    
HH         2.312421822         4.995785586        -3.678746208    
HH         1.167915781         5.897914083        -2.663553142    
    52
Energy=    -36.4742852091582    
HH        -3.397207872         2.482716320         1.168376772    
CH        -2.428057271         2.297191444        0.7070015409    
HH        -1.688103443         2.973502050         1.132956003    
HH        -2.499855370         2.462613043       -0.3672731482    
C         -2.013255291        0.8679326909        0.9745429815    
O         -1.794025778        0.1048906509        0.3425194372E-01
N         -1.911127538        0.5121275378         2.257277624    
H         -2.121527532         1.216282203         2.949639683    
CA        -1.464078875       -0.8003586310         2.747695428    
HA        -1.269334230       -0.7012258685         3.816871468    
CB        -2.633917826        -1.793694179         2.604940460    
HB        -2.399849675        -2.727510823         3.117796121    
HB        -2.833016961        -1.998653810         1.551918842    
HB        -3.531878231        -1.372778450         3.060018917    
C        -0.1212422847        -1.256172614         2.116567097    
O         0.7541871711       -0.4288531029         1.840044551    
N         0.6391542655E-01    -2.562143361         1.883464811    
H        -0.6763234832        -3.200539509         2.138752965    
CA         1.294591440        -3.137786438         1.322784023    
HA         2.132762070        -2.829915451         1.950711760    
CB         1.176969281        -4.665428575         1.404512179    
HB        0.3478817888        -5.012207032        0.7853833361    
HB         1.009615936        -4.971337743         2.438364600    
HB         2.101071806        -5.124109751         1.049690255    
C          1.612297959        -2.674771257       -0.1203214862    
O          2.768706019        -2.739675725       -0.5480688461    
N         0.6134502087        -2.175884158       -0.8606738845    
H        -0.3132495229        -2.166392693       -0.4587221985    
CA        0.7740842894        -1.593846929        -2.198623536    
HA         1.547265813        -2.151365988        -2.730249367    
CB       -0.5444816588        -1.790876420        -2.958100290    
HB        -1.344484112        -1.231242183        -2.471514856    
HB       -0.4350954020        -1.434241164        -3.983020343    
HB       -0.8057570088        -2.849774729        -2.981566467    
C          1.216411548       -0.1086188291        -2.188621037    
O          1.579707459        0.4242029695        -3.242844786    
N          1.214157372        0.5391757797        -1.013284665    
H         0.9235171787        0.3585959580E-02   -0.2058746773    
CA         1.448747225         1.970573755       -0.7750642379    
HA         1.279452571         2.125403454        0.2922251829    
CB         2.931583114         2.301159342        -1.018532155    
HB         3.149515294         3.312610831       -0.6740166795    
HB         3.563190623         1.602912242       -0.4673632357    
HB         3.165014959         2.235281845        -2.081538461    
C         0.4646181746         2.937031800        -1.486622134    
O        -0.3135367573         2.557052974        -2.369463924    
N         0.4799116411         4.210980353        -1.068848845    
H          1.139552555         4.456325717       -0.3422122219    
CH       -0.3866297633         5.272325460        -1.584348912    
HH       -0.2251776639         5.401101247        -2.656667144    
HH       -0.1663949835         6.214987078        -1.079502843    
HH        -1.434570090         5.017438468        -1.412848161    
