    52
Energy=    -35.3093212065673    
HH        -2.243080582         2.996457425        0.2705975392    
CH        -2.069928230         3.226765361         1.320952829    
HH        -1.289952727         3.982613743         1.405818603    
HH        -2.991219592         3.601818914         1.765113353    
C         -1.643336956         1.971136689         2.048114567    
O        -0.5770397535         1.943509793         2.661956732    
N         -2.474203182        0.9323450874         1.977451970    
H         -3.325830647         1.042298785         1.447323607    
CA        -2.211179086       -0.3753062700         2.586216853    
HA        -1.842886488       -0.2115011117         3.601020266    
CB        -3.536115843        -1.142823545         2.691257061    
HB        -3.371600814        -2.097065050         3.193790342    
HB        -4.256992308       -0.5620655536         3.268726069    
HB        -3.939624242        -1.331196765         1.694986068    
C         -1.136463820        -1.183000976         1.824501636    
O        -0.9682419947        -1.028508294        0.6099790954    
N        -0.4312282450        -2.069980298         2.538181845    
H        -0.6426373607        -2.144220851         3.523412003    
CA        0.6443844133        -2.930301662         2.026359173    
HA         1.185361996        -3.307329415         2.896111039    
CB        0.3088979365E-01    -4.167188405         1.345408932    
HB       -0.5683325817        -3.872601267        0.4825949111    
HB       -0.6100336317        -4.694343262         2.053639232    
HB        0.8234250798        -4.844691671         1.023640114    
C          1.706103665        -2.162448499         1.198859341    
O          2.485629574        -1.389189232         1.763751934    
N          1.741914595        -2.353158402       -0.1262230054    
H          1.073476510        -2.994835639       -0.5277624883    
CA         2.686834075        -1.698380160        -1.039759043    
HA         3.673571158        -1.701878848       -0.5730819531    
CB         2.769639430        -2.550428496        -2.313386691    
HB         1.803840773        -2.560078875        -2.821115970    
HB         3.520065593        -2.133676826        -2.986495687    
HB         3.056267513        -3.572202230        -2.060058208    
C          2.347991707       -0.2213347919        -1.363990869    
O          3.186804822        0.4816290669        -1.938273727    
N          1.150204079        0.2504499561       -0.9858869122    
H         0.5385848099       -0.3949569476       -0.5003733935    
CA        0.5870312962         1.577858022        -1.274637341    
HA       -0.4378251165         1.563213720       -0.9004048196    
CB         1.334071616         2.633981761       -0.4390694675    
HB        0.8043197379         3.586246465       -0.4745343985    
HB         1.392198994         2.311346851        0.6012712435    
HB         2.343554515         2.777691550       -0.8254244311    
C         0.4671288117         1.926579140        -2.783282133    
O         0.7864685313         1.121553223        -3.667147045    
N        -0.4850233293E-01     3.127142155        -3.085393490    
H        -0.3017079793         3.732910387        -2.316313720    
CH       -0.2639983993         3.629942371        -4.443470850    
HH       -0.6863667758         4.636139912        -4.408627353    
HH       -0.9547450547         2.976576937        -4.980637539    
HH        0.6833109512         3.664485825        -4.985685818    
    52
Energy=    -31.2736332346031    
HH        -2.711663589         3.221971167        0.9588983837    
CH        -2.950928201         3.155680557         2.019517932    
HH        -2.494234658         3.990658275         2.549533706    
HH        -4.031859568         3.187594358         2.150453003    
C         -2.419708212         1.851125474         2.569990934    
O         -1.593744669         1.855416961         3.483290531    
N         -2.893399395        0.7364947364         2.014838558    
H         -3.563656841        0.8302570358         1.266485309    
CA        -2.467168570       -0.6168938847         2.385426156    
HA        -2.459114284       -0.6848254228         3.475210830    
CB        -3.510402671        -1.615619565         1.864520652    
HB        -3.246914951        -2.625997283         2.180606893    
HB        -4.494126721        -1.368615134         2.266728047    
HB        -3.548051948        -1.583196164        0.7743482789    
C         -1.043686982       -0.9578875710         1.886583975    
O        -0.5673861539       -0.3760118869        0.9098178136    
N        -0.3967328207        -1.919273657         2.560629833    
H        -0.9048038619        -2.311627115         3.340708920    
CA        0.9377231886        -2.509062400         2.339453860    
HA         1.512903032        -2.327449943         3.249148918    
CB        0.7644083406        -4.032219946         2.227520788    
HB        0.1372896960        -4.283511160         1.370792113    
HB        0.2967606106        -4.419568052         3.133956202    
HB         1.739984460        -4.506515136         2.109237169    
C          1.805022323        -1.950345985         1.181788647    
O          2.814448854        -1.284696542         1.432460010    
N          1.445253873        -2.237167928       -0.7671685268E-01
H         0.5979394185        -2.769313792       -0.2120224966    
CA         2.245112606        -1.918298324        -1.267439562    
HA         3.282703636        -2.186393086        -1.060211163    
CB         1.751568064        -2.814901494        -2.410846263    
HB        0.7174853695        -2.570079396        -2.658632334    
HB         2.373777968        -2.661105941        -3.293508781    
HB         1.815533957        -3.863571045        -2.116638838    
C          2.244061987       -0.4249584645        -1.680473692    
O          3.077823823       -0.2144791869E-01    -2.498980642    
N          1.342615209        0.3875015573        -1.111503517    
H         0.7196953373       -0.3435362622E-01   -0.4321444320    
CA         1.098207753         1.804236532        -1.419923285    
HA        0.2243081938         2.098565889       -0.8359053044    
CB         2.272558848         2.644454913       -0.8844823357    
HB         2.025610514         3.705683917       -0.9251468316    
HB         2.475390324         2.378465199        0.1540494165    
HB         3.167934449         2.467823780        -1.481291144    
C         0.7221710794         2.100778458        -2.897445680    
O         0.6105774462         1.199092283        -3.737677788    
N         0.4739354480         3.380961450        -3.210335656    
H         0.5680568046         4.066944778        -2.473204117    
CH        0.8410649309E-01     3.860435702        -4.537656472    
HH       -0.4722936401E-01     4.944191638        -4.521585110    
HH       -0.8559265013         3.396350918        -4.843469158    
HH        0.8557711558         3.610222084        -5.268755424    
    52
Energy=    -37.1738336533408    
HH        -2.929267782         3.392425671         2.068359626    
CH        -3.513240404         2.848868097         2.810034844    
HH        -3.462719667         3.368113682         3.766329806    
HH        -4.550220725         2.788033258         2.482101544    
C         -2.953872193         1.451734923         2.958817910    
O         -2.529788742         1.067524694         4.049204696    
N         -2.954224707        0.6926973227         1.863845324    
H         -3.317222818         1.094142084         1.012174278    
CA        -2.431037451       -0.6757534277         1.807101976    
HA        -2.809987522        -1.222737264         2.672893232    
CB        -2.983086683        -1.356588969        0.5463604107    
HB        -2.660354540        -2.398308057        0.5152520391    
HB        -4.073876971        -1.329635396        0.5577316082    
HB        -2.619578277       -0.8445966216       -0.3464022935    
C        -0.8879306049       -0.7329814717         1.859513649    
O        -0.1960215913        0.2096036290         1.459238423    
N        -0.3386805587        -1.873257672         2.295583694    
H        -0.9571731347        -2.613855739         2.597477155    
CA         1.107128454        -2.091022188         2.451197590    
HA         1.505753439        -1.296243254         3.084460545    
CB         1.304719977        -3.424684684         3.183615610    
HB        0.9181255061        -4.246603074         2.578687633    
HB        0.7832938806        -3.403980562         4.141795266    
HB         2.367528041        -3.588469127         3.367681244    
C          1.900189524        -2.055184564         1.122687332    
O          3.110386009        -1.811617637         1.129525665    
N          1.226219664        -2.251996577       -0.1795862487E-01
H         0.2475519868        -2.490733896        0.5088344253E-01
CA         1.803330811        -2.133219183        -1.361883049    
HA         2.790745710        -2.598385312        -1.356240843    
CB        0.9135888630        -2.932690904        -2.323220088    
HB       -0.8182079064E-01    -2.488061013        -2.370365383    
HB         1.352555509        -2.926289956        -3.321807919    
HB        0.8332415806        -3.966364243        -1.983479999    
C          1.993798561       -0.6717936574        -1.842114530    
O          2.654888774       -0.4501166676        -2.862431064    
N          1.443601850        0.3121224808        -1.111978982    
H         0.9426638825        0.3826101182E-01   -0.2766582477    
CA         1.410977936         1.745961306        -1.438997889    
HA        0.7921942921         2.221869504       -0.6759944764    
CB         2.824901473         2.332277082        -1.268516511    
HB         2.788541715         3.421190785        -1.311255449    
HB         3.233066373         2.040190983       -0.2997606919    
HB         3.483389615         1.970589206        -2.058844744    
C         0.7327801659         2.095042466        -2.792024199    
O         0.2234962017         1.225793858        -3.510614104    
N         0.6791537868         3.393563284        -3.122504926    
H          1.100326640         4.054353735        -2.483124346    
CH        0.6375371457E-01     3.925291835        -4.339979874    
HH        0.1660657654         5.011920749        -4.368451867    
HH       -0.9979054508         3.670814570        -4.366154524    
HH        0.5500512134         3.502784700        -5.221789919    
