    52
Energy=    -36.1555293799364    
HH        -3.259006841        0.3734950970        -1.203767186    
CH        -2.797359469         1.115006545       -0.5528651085    
HH        -2.057954640         1.683787207        -1.115582562    
HH        -3.562638873         1.788537921       -0.1691658195    
C         -2.125170549        0.4144110302        0.6039985919    
O        -0.9164835847        0.5542502009        0.7910704299    
N         -2.895102370       -0.3543435642         1.373351641    
H         -3.875861344       -0.4264850579         1.145861062    
CA        -2.397970038        -1.103282805         2.530914456    
HA        -1.974916882       -0.3897564104         3.240943094    
CB        -3.580450361        -1.799846612         3.217620857    
HB        -3.227446129        -2.336586187         4.099371294    
HB        -4.318050310        -1.058684635         3.528876536    
HB        -4.048880000        -2.509037135         2.533215839    
C         -1.289320767        -2.099846088         2.126321064    
O         -1.496810109        -2.964478211         1.268463078    
N        -0.1030840290        -1.951592388         2.731320943    
H        -0.3228381517E-01    -1.234177755         3.440203825    
CA         1.136391671        -2.670891362         2.398001571    
HA         1.932336358        -2.163013117         2.945374124    
CB         1.065208922        -4.097587717         2.969106821    
HB        0.3225164729        -4.683613943         2.426788986    
HB        0.7941847679        -4.061891737         4.025106422    
HB         2.037394590        -4.583037942         2.875551091    
C          1.573116806        -2.591494592        0.9082495005    
O          2.331398764        -3.445664927        0.4361213120    
N          1.109006269        -1.574764748        0.1657155910    
H         0.4659895966       -0.9321562667        0.6103057472    
CA         1.359326192        -1.396192242        -1.273340645    
HA         2.174531247        -2.051792949        -1.583599081    
CB        0.9323585184E-01    -1.835259129        -2.021795004    
HB       -0.7449975386        -1.191163987        -1.752705755    
HB        0.2612204459        -1.769226119        -3.097551306    
HB       -0.1501563379        -2.867679040        -1.766875262    
C          1.772253003        0.3867586470E-01    -1.679856260    
O          2.471781371        0.2036932904        -2.684759964    
N          1.380993546         1.056670376       -0.8982990272    
H         0.7804300001        0.8278636146       -0.1165150294    
CA         1.573261996         2.492264246        -1.156180703    
HA         1.037241235         3.021611699       -0.3662289044    
CB         3.061360299         2.843539662       -0.9712953274    
HB         3.193922631         3.925785240       -0.9610630462    
HB         3.421513895         2.444512089       -0.2186607314E-01
HB         3.654350427         2.424188889        -1.784623839    
C         0.9543338200         3.006344399        -2.484751528    
O         0.3179400318         2.260775097        -3.239866486    
N          1.098094279         4.312629528        -2.751282840    
H          1.615812892         4.869667488        -2.084530202    
CH        0.5680379601         4.990892529        -3.935633107    
HH        0.8335158050         6.049668650        -3.912081115    
HH       -0.5199510730         4.901265171        -3.964309113    
HH        0.9831942158         4.544010634        -4.841463582    
    52
Energy=    -34.6329394589887    
HH        -3.286670731         1.031886523        -1.315428402    
CH        -2.907873015         1.764261982       -0.6037520569    
HH        -2.244319438         2.460240420        -1.114556157    
HH        -3.742040126         2.311196818       -0.1661329375    
C         -2.149658042         1.048897935        0.4907321524    
O        -0.9495897474         1.264502955        0.6566866005    
N         -2.844252694        0.1936004997         1.239517003    
H         -3.823545235        0.6519294060E-01     1.031802255    
CA        -2.265202022       -0.5817920629         2.340131540    
HA        -1.742562980        0.1119332044         3.002063380    
CB        -3.401333524        -1.225467177         3.146057717    
HB        -2.987181910        -1.766764343         3.998007843    
HB        -4.078354677       -0.4537510174         3.515522902    
HB        -3.957831380        -1.923308600         2.518185117    
C         -1.241917057        -1.630022229         1.848808446    
O         -1.438553980        -2.268103845        0.8104719439    
N        -0.1529250616        -1.806683544         2.608796939    
H        -0.9475456895E-01    -1.239800314         3.444054564    
CA        0.9704168082        -2.739435170         2.393811139    
HA         1.698895678        -2.508153774         3.172965644    
CB        0.4868056776        -4.170840907         2.676481155    
HB       -0.2187812427        -4.488621269         1.908001951    
HB        0.7679077860E-03    -4.214165283         3.652161615    
HB         1.337226537        -4.853888747         2.679000407    
C          1.770595291        -2.622939091         1.066978950    
O          2.839540531        -3.231325427        0.9528655945    
N          1.304634426        -1.840399826        0.8566336417E-01
H         0.3755564366        -1.463149555        0.2130383927    
CA         1.914062064        -1.679319953        -1.244026894    
HA         2.909952555        -2.124792732        -1.236552468    
CB         1.057184440        -2.470421581        -2.243742816    
HB        0.5895535092E-01    -2.034504101        -2.306509486    
HB         1.520160078        -2.445872869        -3.230970520    
HB        0.9762945947        -3.509885320        -1.922704869    
C          2.111261599       -0.2057605818        -1.683069838    
O          2.558931718        0.4303649094E-01    -2.807868854    
N          1.799486020        0.7581853783       -0.8033236809    
H          1.472130427        0.4551657875        0.1014388826    
CA         1.725802061         2.205845868        -1.058084367    
HA         1.357148342         2.656765769       -0.1349060047    
CB         3.142552246         2.770158231        -1.265586128    
HB         3.113410081         3.860233236        -1.267194066    
HB         3.795298879         2.442229344       -0.4553314373    
HB         3.551469035         2.429720708        -2.217160602    
C         0.7089420846         2.632079157        -2.150706497    
O         0.1277705914         1.808176679        -2.867743233    
N         0.4658923002         3.946373723        -2.257788165    
H         0.9686073669         4.565315622        -1.635494545    
CH       -0.4685442280         4.551919288        -3.208305876    
HH       -0.4790424767         5.636652449        -3.084839538    
HH        -1.477098576         4.168639053        -3.040020401    
HH       -0.1677181138         4.316959057        -4.231445660    
    52
Energy=    -34.6410318505616    
HH        -3.264352212         1.133501534        -1.296016806    
CH        -2.925338605         1.859875299       -0.5585940664    
HH        -2.280342628         2.593997286        -1.038780341    
HH        -3.786652530         2.363124391       -0.1211256673    
C         -2.158362750         1.143607793        0.5292421679    
O        -0.9675298128         1.391891914        0.7141736695    
N         -2.835620086        0.2523348317         1.251294175    
H         -3.808139932        0.9976850354E-01     1.028744501    
CA        -2.245627046       -0.5347954003         2.337775452    
HA        -1.715760457        0.1512550158         3.001974913    
CB        -3.374514042        -1.185555186         3.148309840    
HB        -2.953048647        -1.734524206         3.991718161    
HB        -4.048029594       -0.4170639544         3.530699762    
HB        -3.936803210        -1.877679146         2.519267021    
C         -1.227432984        -1.578801758         1.827070028    
O         -1.416278671        -2.179019281        0.7649323502    
N        -0.1561965526        -1.799065303         2.601162196    
H        -0.1078015357        -1.259115656         3.454646137    
CA        0.9595158229        -2.741909860         2.385922233    
HA         1.666023391        -2.553800516         3.196354356    
CB        0.4447113512        -4.174488355         2.596366273    
HB       -0.2435870266        -4.449142961         1.796211268    
HB       -0.6946026961E-01    -4.248729371         3.555636799    
HB         1.284098033        -4.871119914         2.594163451    
C          1.802732622        -2.594159409         1.089854006    
O          2.924146468        -3.109294300         1.040168846    
N          1.313561308        -1.885844564        0.6543546828E-01
H         0.3497320753        -1.588113804        0.1450456602    
CA         1.958391293        -1.709960542        -1.245065668    
HA         2.967414429        -2.122768549        -1.204161561    
CB         1.161687953        -2.534746102        -2.267009516    
HB        0.1523847457        -2.132308490        -2.365767519    
HB         1.656215768        -2.500958821        -3.238538059    
HB         1.104328663        -3.574364104        -1.941403967    
C          2.122416410       -0.2314020774        -1.680839502    
O          2.559913528        0.3119219373E-01    -2.806556153    
N          1.792602034        0.7223709006       -0.7964576133    
H          1.474619898        0.4084687569        0.1080244984    
CA         1.697645823         2.170169154        -1.044094472    
HA         1.324111731         2.612627870       -0.1189464788    
CB         3.106353200         2.755130475        -1.250054757    
HB         3.062621858         3.844686256        -1.244112678    
HB         3.764802598         2.430742412       -0.4429932795    
HB         3.518409931         2.426753194        -2.204501042    
C         0.6739607145         2.585608640        -2.134519475    
O         0.9149536432E-01     1.754276267        -2.841975209    
N         0.4261037424         3.898293311        -2.250346732    
H         0.9293333304         4.523346076        -1.634657065    
CH       -0.5119154406         4.494141545        -3.203476305    
HH       -0.5345400929         5.578632808        -3.079527624    
HH        -1.516859114         4.099993904        -3.038976196    
HH       -0.2051405451         4.262941096        -4.225695479    
