    52
 Energy=    -37.1738336533408
HH           -2.9292677820        3.3924256710        2.0683596260
CH           -3.5132404040        2.8488680970        2.8100348440
HH           -3.4627196670        3.3681136820        3.7663298060
HH           -4.5502207250        2.7880332580        2.4821015440
C            -2.9538721930        1.4517349230        2.9588179100
O            -2.5297887420        1.0675246940        4.0492046960
N            -2.9542247070        0.6926973227        1.8638453240
H            -3.3172228180        1.0941420840        1.0121742780
CA           -2.4310374510       -0.6757534277        1.8071019760
HA           -2.8099875220       -1.2227372640        2.6728932320
CB           -2.9830866830       -1.3565889690        0.5463604107
HB           -2.6603545400       -2.3983080570        0.5152520391
HB           -4.0738769710       -1.3296353960        0.5577316082
HB           -2.6195782770       -0.8445966216       -0.3464022935
C            -0.8879306049       -0.7329814717        1.8595136490
O            -0.1960215913        0.2096036290        1.4592384230
N            -0.3386805587       -1.8732576720        2.2955836940
H            -0.9571731347       -2.6138557390        2.5974771550
CA            1.1071284540       -2.0910221880        2.4511975900
HA            1.5057534390       -1.2962432540        3.0844605450
CB            1.3047199770       -3.4246846840        3.1836156100
HB            0.9181255061       -4.2466030740        2.5786876330
HB            0.7832938806       -3.4039805620        4.1417952660
HB            2.3675280410       -3.5884691270        3.3676812440
C             1.9001895240       -2.0551845640        1.1226873320
O             3.1103860090       -1.8116176370        1.1295256650
N             1.2262196640       -2.2519965770       -0.0179586249
H             0.2475519868       -2.4907338960        0.0508834425
CA            1.8033308110       -2.1332191830       -1.3618830490
HA            2.7907457100       -2.5983853120       -1.3562408430
CB            0.9135888630       -2.9326909040       -2.3232200880
HB           -0.0818207906       -2.4880610130       -2.3703653830
HB            1.3525555090       -2.9262899560       -3.3218079190
HB            0.8332415806       -3.9663642430       -1.9834799990
C             1.9937985610       -0.6717936574       -1.8421145300
O             2.6548887740       -0.4501166676       -2.8624310640
N             1.4436018500        0.3121224808       -1.1119789820
H             0.9426638825        0.0382610118       -0.2766582477
CA            1.4109779360        1.7459613060       -1.4389978890
HA            0.7921942921        2.2218695040       -0.6759944764
CB            2.8249014730        2.3322770820       -1.2685165110
HB            2.7885417150        3.4211907850       -1.3112554490
HB            3.2330663730        2.0401909830       -0.2997606919
HB            3.4833896150        1.9705892060       -2.0588447440
C             0.7327801659        2.0950424660       -2.7920241990
O             0.2234962017        1.2257938580       -3.5106141040
N             0.6791537868        3.3935632840       -3.1225049260
H             1.1003266400        4.0543537350       -2.4831243460
CH            0.0637537146        3.9252918350       -4.3399798740
HH            0.1660657654        5.0119207490       -4.3684518670
HH           -0.9979054508        3.6708145700       -4.3661545240
HH            0.5500512134        3.5027847000       -5.2217899190
    52
 Energy=    -31.2736332346031
HH           -2.7116635890        3.2219711670        0.9588983837
CH           -2.9509282010        3.1556805570        2.0195179320
HH           -2.4942346580        3.9906582750        2.5495337060
HH           -4.0318595680        3.1875943580        2.1504530030
C            -2.4197082120        1.8511254740        2.5699909340
O            -1.5937446690        1.8554169610        3.4832905310
N            -2.8933993950        0.7364947364        2.0148385580
H            -3.5636568410        0.8302570358        1.2664853090
CA           -2.4671685700       -0.6168938847        2.3854261560
HA           -2.4591142840       -0.6848254228        3.4752108300
CB           -3.5104026710       -1.6156195650        1.8645206520
HB           -3.2469149510       -2.6259972830        2.1806068930
HB           -4.4941267210       -1.3686151340        2.2667280470
HB           -3.5480519480       -1.5831961640        0.7743482789
C            -1.0436869820       -0.9578875710        1.8865839750
O            -0.5673861539       -0.3760118869        0.9098178136
N            -0.3967328207       -1.9192736570        2.5606298330
H            -0.9048038619       -2.3116271150        3.3407089200
CA            0.9377231886       -2.5090624000        2.3394538600
HA            1.5129030320       -2.3274499430        3.2491489180
CB            0.7644083406       -4.0322199460        2.2275207880
HB            0.1372896960       -4.2835111600        1.3707921130
HB            0.2967606106       -4.4195680520        3.1339562020
HB            1.7399844600       -4.5065151360        2.1092371690
C             1.8050223230       -1.9503459850        1.1817886470
O             2.8144488540       -1.2846965420        1.4324600100
N             1.4452538730       -2.2371679280       -0.0767168527
H             0.5979394185       -2.7693137920       -0.2120224966
CA            2.2451126060       -1.9182983240       -1.2674395620
HA            3.2827036360       -2.1863930860       -1.0602111630
CB            1.7515680640       -2.8149014940       -2.4108462630
HB            0.7174853695       -2.5700793960       -2.6586323340
HB            2.3737779680       -2.6611059410       -3.2935087810
HB            1.8155339570       -3.8635710450       -2.1166388380
C             2.2440619870       -0.4249584645       -1.6804736920
O             3.0778238230       -0.0214479187       -2.4989806420
N             1.3426152090        0.3875015573       -1.1115035170
H             0.7196953373       -0.0343536262       -0.4321444320
CA            1.0982077530        1.8042365320       -1.4199232850
HA            0.2243081938        2.0985658890       -0.8359053044
CB            2.2725588480        2.6444549130       -0.8844823357
HB            2.0256105140        3.7056839170       -0.9251468316
HB            2.4753903240        2.3784651990        0.1540494165
HB            3.1679344490        2.4678237800       -1.4812911440
C             0.7221710794        2.1007784580       -2.8974456800
O             0.6105774462        1.1990922830       -3.7376777880
N             0.4739354480        3.3809614500       -3.2103356560
H             0.5680568046        4.0669447780       -2.4732041170
CH            0.0841064931        3.8604357020       -4.5376564720
HH           -0.0472293640        4.9441916380       -4.5215851100
HH           -0.8559265013        3.3963509180       -4.8434691580
HH            0.8557711558        3.6102220840       -5.2687554240
    52
 Energy=    -35.3093212065673
HH           -2.2430805820        2.9964574250        0.2705975392
CH           -2.0699282300        3.2267653610        1.3209528290
HH           -1.2899527270        3.9826137430        1.4058186030
HH           -2.9912195920        3.6018189140        1.7651133530
C            -1.6433369560        1.9711366890        2.0481145670
O            -0.5770397535        1.9435097930        2.6619567320
N            -2.4742031820        0.9323450874        1.9774519700
H            -3.3258306470        1.0422987850        1.4473236070
CA           -2.2111790860       -0.3753062700        2.5862168530
HA           -1.8428864880       -0.2115011117        3.6010202660
CB           -3.5361158430       -1.1428235450        2.6912570610
HB           -3.3716008140       -2.0970650500        3.1937903420
HB           -4.2569923080       -0.5620655536        3.2687260690
HB           -3.9396242420       -1.3311967650        1.6949860680
C            -1.1364638200       -1.1830009760        1.8245016360
O            -0.9682419947       -1.0285082940        0.6099790954
N            -0.4312282450       -2.0699802980        2.5381818450
H            -0.6426373607       -2.1442208510        3.5234120030
CA            0.6443844133       -2.9303016620        2.0263591730
HA            1.1853619960       -3.3073294150        2.8961110390
CB            0.0308897937       -4.1671884050        1.3454089320
HB           -0.5683325817       -3.8726012670        0.4825949111
HB           -0.6100336317       -4.6943432620        2.0536392320
HB            0.8234250798       -4.8446916710        1.0236401140
C             1.7061036650       -2.1624484990        1.1988593410
O             2.4856295740       -1.3891892320        1.7637519340
N             1.7419145950       -2.3531584020       -0.1262230054
H             1.0734765100       -2.9948356390       -0.5277624883
CA            2.6868340750       -1.6983801600       -1.0397590430
HA            3.6735711580       -1.7018788480       -0.5730819531
CB            2.7696394300       -2.5504284960       -2.3133866910
HB            1.8038407730       -2.5600788750       -2.8211159700
HB            3.5200655930       -2.1336768260       -2.9864956870
HB            3.0562675130       -3.5722022300       -2.0600582080
C             2.3479917070       -0.2213347919       -1.3639908690
O             3.1868048220        0.4816290669       -1.9382737270
N             1.1502040790        0.2504499561       -0.9858869122
H             0.5385848099       -0.3949569476       -0.5003733935
CA            0.5870312962        1.5778580220       -1.2746373410
HA           -0.4378251165        1.5632137200       -0.9004048196
CB            1.3340716160        2.6339817610       -0.4390694675
HB            0.8043197379        3.5862464650       -0.4745343985
HB            1.3921989940        2.3113468510        0.6012712435
HB            2.3435545150        2.7776915500       -0.8254244311
C             0.4671288117        1.9265791400       -2.7832821330
O             0.7864685313        1.1215532230       -3.6671470450
N            -0.0485023329        3.1271421550       -3.0853934900
H            -0.3017079793        3.7329103870       -2.3163137200
CH           -0.2639983993        3.6299423710       -4.4434708500
HH           -0.6863667758        4.6361399120       -4.4086273530
HH           -0.9547450547        2.9765769370       -4.9806375390
HH            0.6833109512        3.6644858250       -4.9856858180
    52
 Energy=    -35.3093212065625
HH           -2.2430820643        2.9964567236        0.2705964489
CH           -2.0699297895        3.2267650377        1.3209516655
HH           -1.2899547409        3.9826139155        1.4058172069
HH           -2.9912213586        3.6018181652        1.7651121233
C            -1.6433377395        1.9711367986        2.0481137089
O            -0.5770402912        1.9435105463        2.6619554753
N            -2.4742035970        0.9323448533        1.9774518084
H            -3.3258312886        1.0422980486        1.4473237035
CA           -2.2111788441       -0.3753061893        2.5862170975
HA           -1.8428857827       -0.2115005312        3.6010202591
CB           -3.5361153405       -1.1428237871        2.6912582875
HB           -3.3715997803       -2.0970650558        3.1937918489
HB           -4.2569916723       -0.5620657721        3.2687274387
HB           -3.9396241930       -1.3311975044        1.6949875745
C            -1.1364637371       -1.1830009580        1.8245017304
O            -0.9682421179       -1.0285083804        0.6099791458
N            -0.4312280628       -2.0699802305        2.5381819057
H            -0.6426370269       -2.1442207035        3.5234121025
CA            0.6443845129       -2.9303016341        2.0263591427
HA            1.1853621694       -3.3073293925        2.8961109565
CB            0.0308897873       -4.1671883717        1.3454089868
HB           -0.5683326043       -3.8726012276        0.4825949824
HB           -0.6100336561       -4.6943431535        2.0536393334
HB            0.8234250187       -4.8446917005        1.0236401618
C             1.7061036905       -2.1624484877        1.1988592015
O             2.4856296040       -1.3891891459        1.7637516901
N             1.7419145245       -2.3531584787       -0.1262231308
H             1.0734764270       -2.9948357660       -0.5277625078
CA            2.6868338988       -1.6983803136       -1.0397593235
HA            3.6735710075       -1.7018788818       -0.5730822916
CB            2.7696392063       -2.5504288768       -2.3133868229
HB            1.8038404602       -2.5600795390       -2.8211159245
HB            3.5200651687       -2.1336772134       -2.9864960441
HB            3.0562675150       -3.5722025112       -2.0600581748
C             2.3479914551       -0.2213349917       -1.3639913067
O             3.1868044011        0.4816287483       -1.9382745573
N             1.1502039786        0.2504498797       -0.9858870175
H             0.5385847629       -0.3949569506       -0.5003733301
CA            0.5870313498        1.5778580681       -1.2746371983
HA           -0.4378250005        1.5632139290       -0.9004045110
CB            1.3340720293        2.6339815622       -0.4390693230
HB            0.8043201567        3.5862462885       -0.4745337527
HB            1.3921998201        2.3113463440        0.6012712720
HB            2.3435547739        2.7776914333       -0.8254246561
C             0.4671286819        1.9265793266       -2.7832819420
O             0.7864672779        1.1215530603       -3.6671469426
N            -0.0485013823        3.1271428429       -3.0853931564
H            -0.3017061225        3.7329113744       -2.3163133212
CH           -0.2639973857        3.6299432275       -4.4434704694
HH           -0.6863654864        4.6361408768       -4.4086268772
HH           -0.9547442552        2.9765780339       -4.9806371718
HH            0.6833119394        3.6644864607       -4.9856855002
    52
 Energy=    -33.5205243120247
HH           -3.0709046637        1.8581194670       -0.7394284747
CH           -2.9284454872        2.4056346576        0.1915561366
HH           -2.3201747557        3.2902481919        0.0064773945
HH           -3.8978690488        2.7068031581        0.5869030149
C            -2.2363953800        1.5114343933        1.1952540719
O            -1.1348031342        1.8240277599        1.6456498442
N            -2.8742572911        0.3947654068        1.5406216496
H            -3.7709168201        0.2090360866        1.1162863172
CA           -2.3276327606       -0.6084699368        2.4587435725
HA           -1.8901419069       -0.0866338330        3.3124376261
CB           -3.4798017026       -1.4737105151        2.9871834108
HB           -3.0980752339       -2.1926268333        3.7136194785
HB           -4.2242721352       -0.8428876908        3.4752735078
HB           -3.9494620580       -2.0154308296        2.1644935779
C            -1.2154526490       -1.4620762309        1.8089570703
O            -1.2637066560       -1.7504026658        0.6093334827
N            -0.2421761401       -1.8932495809        2.6227217085
H            -0.3153083650       -1.6101419471        3.5902418864
CA            0.9285271276       -2.7251877429        2.2932481935
HA            1.5459008486       -2.7426520467        3.1933356214
CB            0.4802162264       -4.1784832952        2.0711274679
HB           -0.1563304324       -4.2516384258        1.1885465140
HB           -0.0747457315       -4.5316204092        2.9414254725
HB            1.3555288350       -4.8143082458        1.9308146661
C             1.8636593022       -2.1912999167        1.1796011982
O             3.0058348994       -1.8160301012        1.4602331087
N             1.4032941323       -2.1589038968       -0.0745869176
H             0.4380706236       -2.4331669651       -0.2165751838
CA            2.1835368844       -1.7689309213       -1.2547713495
HA            3.2147375010       -2.0980383983       -1.1142551122
CB            1.6122527435       -2.5288021920       -2.4590427066
HB            0.5819128900       -2.2198264935       -2.6423783343
HB            2.2103762527       -2.3151288363       -3.3458800384
HB            1.6393712128       -3.6026557648       -2.2682636826
C             2.2277901208       -0.2441741852       -1.5145191509
O             3.0840239343        0.2172176524       -2.2769110539
N             1.3360780500        0.5286020653       -0.8750675154
H             0.6874773580        0.0559336226       -0.2635084504
CA            1.1347915493        1.9754676264       -1.0570287408
HA            0.2659652586        2.2469402889       -0.4581136672
CB            2.3262640296        2.7318898701       -0.4409956188
HB            2.1074888403        3.7987254672       -0.3877704314
HB            2.5123560101        2.3687125445        0.5708304242
HB            3.2221264482        2.5859966187       -1.0451832440
C             0.7781769635        2.4136821806       -2.5033664718
O             0.6545261434        1.5949317594       -3.4227653604
N             0.5576392916        3.7218754300       -2.6984646680
H             0.6611537079        4.3357041420       -1.9013955066
CH            0.1846513499        4.3283941319       -3.9777131492
HH            0.0757278230        5.4087060260       -3.8632885024
HH           -0.7632486721        3.9140433986       -4.3275107952
HH            0.9546649680        4.1295857533       -4.7261322931
    52
 Energy=    -36.1555293799354
HH           -3.1955829642        0.3226458298       -1.3761651415
CH           -2.7860233737        1.0646756433       -0.6918525415
HH           -2.0292268704        1.6560114033       -1.2061121491
HH           -3.5852438294        1.7171493285       -0.3425003220
C            -2.1633071554        0.3625644576        0.4914775215
O            -0.9698841275        0.5246588882        0.7463145627
N            -2.9576198936       -0.4320842440        1.2079155656
H            -3.9227359994       -0.5212809563        0.9260656578
CA           -2.5086713674       -1.1861269560        2.3817413738
HA           -2.1402752610       -0.4736592778        3.1226250853
CB           -3.7118417970       -1.9159649784        2.9939046866
HB           -3.3962129543       -2.4571292378        3.8870479395
HB           -4.4809090476       -1.1943409294        3.2732774744
HB           -4.1270281151       -2.6253731562        2.2761664974
C            -1.3586724280       -2.1542076067        2.0264109594
O            -1.5005928205       -3.0113278324        1.1479097475
N            -0.2106676218       -1.9897695016        2.6973853888
H            -0.1939389865       -1.2806289981        3.4178375160
CA            1.0601539387       -2.6789404687        2.4238003434
HA            1.8140508843       -2.1622231939        3.0202294024
CB            0.9881851008       -4.1143317277        2.9725836459
HB            0.2888317639       -4.7081483524        2.3831651461
HB            0.6591883491       -4.0983781570        4.0124730953
HB            1.9741154819       -4.5784272344        2.9265813058
C             1.5758159942       -2.5706150808        0.9613530143
O             2.3767158974       -3.4026304865        0.5211107783
N             1.1314781267       -1.5537534279        0.2069983266
H             0.4516406713       -0.9305010623        0.6234764375
CA            1.4561810151       -1.3507880297       -1.2138479488
HA            2.3008492637       -1.9852971261       -1.4869150152
CB            0.2424691500       -1.8056658508       -2.0360024741
HB           -0.6226948680       -1.1825791166       -1.8054445903
HB            0.4675230607       -1.7217705785       -3.1000246172
HB            0.0074875936       -2.8461912552       -1.8075177636
C             1.8601430214        0.0975782103       -1.5794432309
O             2.6098558787        0.2903869798       -2.5423334397
N             1.4052555855        1.0967494643       -0.8081049690
H             0.7678787650        0.8451954867       -0.0633320451
CA            1.5808045661        2.5393180656       -1.0374044058
HA            0.9913192940        3.0469053594       -0.2716282738
CB            3.0487897548        2.9185489939       -0.7668180769
HB            3.1575912344        4.0030525814       -0.7360420413
HB            3.3649354895        2.5142936062        0.1959794016
HB            3.6940883287        2.5224083569       -1.5514568374
C             1.0245960724        3.0583675530       -2.3915353618
O             0.4463691601        2.3100931409       -3.1895380423
N             1.1549375004        4.3707868778       -2.6337201525
H             1.6235220225        4.9293365179       -1.9327681031
CH            0.6760851256        5.0538588195       -3.8369653762
HH            0.9173432635        6.1174494864       -3.7858824505
HH           -0.4065650065        4.9423120769       -3.9264166770
HH            1.1494934317        4.6277874943       -4.7240588282
    52
 Energy=    -36.1555293799364
HH           -3.1955827146        0.3226461624       -1.3761650281
CH           -2.7860231720        1.0646758748       -0.6918522889
HH           -2.0292266353        1.6560117200       -1.2061117518
HH           -3.5852436469        1.7171495107       -0.3425000139
C            -2.1633070283        0.3625645141        0.4914777083
O            -0.9698840218        0.5246589124        0.7463148670
N            -2.9576198071       -0.4320842920        1.2079155869
H            -3.9227358921       -0.5212809852        0.9260655980
CA           -2.5086713383       -1.1861271271        2.3817413354
HA           -2.1402752111       -0.4736595244        3.1226251077
CB           -3.7118418013       -1.9159651546        2.9939045679
HB           -3.3962129951       -2.4571294285        3.8870478250
HB           -4.4809090686       -1.1943411128        3.2732773281
HB           -4.1270280807       -2.6253733225        2.2761663440
C            -1.3586724203       -2.1542077767        2.0264108689
O            -1.5005927741       -3.0113278293        1.1479094814
N            -0.2106676738       -1.9897698675        2.6973854497
H            -0.1939390755       -1.2806295472        3.4178377565
CA            1.0601538824       -2.6789408118        2.4238003432
HA            1.8140508257       -2.1622237040        3.0202295491
CB            0.9881849449       -4.1143321794        2.9725833365
HB            0.2888315700       -4.7081486318        2.3831647048
HB            0.6591881805       -4.0983787900        4.0124727877
HB            1.9741152957       -4.5784277391        2.9265809073
C             1.5758159892       -2.5706151258        0.9613530589
O             2.3767158426       -3.4026304925        0.5211106599
N             1.1314782013       -1.5537532756        0.2069985793
H             0.4516408107       -0.9305009134        0.6234768182
CA            1.4561810187       -1.3507877319       -1.2138476906
HA            2.3008492339       -1.9852968258       -1.4869148652
CB            0.2424691080       -1.8056654619       -2.0360022117
HB           -0.6226948878       -1.1825787088       -1.8054442988
HB            0.4675230099       -1.7217701656       -3.1000243563
HB            0.0074875067       -2.8461908640       -1.8075175514
C             1.8601430503        0.0975785222       -1.5794428918
O             2.6098558669        0.2903873121       -2.5423331275
N             1.4052556643        1.0967497782       -0.8081045982
H             0.7678789334        0.8451958081       -0.0633315932
CA            1.5808044883        2.5393183768       -1.0374042357
HA            0.9913191829        3.0469057509       -0.2716281856
CB            3.0487896502        2.9185494884       -0.7668180057
HB            3.1575910639        4.0030530947       -0.7360423188
HB            3.3649354068        2.5142944363        0.1959796049
HB            3.6940882569        2.5224086392       -1.5514566272
C             1.0245959094        3.0583675432       -2.3915352882
O             0.4463687026        2.3100929764       -3.1895376112
N             1.1549375656        4.3707867524       -2.6337205890
H             1.6235222525        4.9293365844       -1.9327688019
CH            0.6760852053        5.0538582905       -3.8369660526
HH            0.9173443765        6.1174487646       -3.7858840354
HH           -0.4065650759        4.9423125019       -3.9264167013
HH            1.1494926228        4.6277858734       -4.7240594561
    52
 Energy=    -34.6329394589887
HH           -3.2310764307        0.9817700964       -1.4810870161
CH           -2.9073498212        1.7121506776       -0.7407559876
HH           -2.2318099708        2.4283926946       -1.2057865758
HH           -3.7755973893        2.2359284808       -0.3429043181
C            -2.1950346745        0.9978778465        0.3848339928
O            -1.0106704331        1.2358217716        0.6190440426
N            -2.9111791296        0.1185344422        1.0838093017
H            -3.8747170627       -0.0271466505        0.8210937343
CA           -2.3767809263       -0.6595083225        2.2049487589
HA           -1.9059225801        0.0358533896        2.9030351308
CB           -3.5413169582       -1.3371219640        2.9393362782
HB           -3.1629213589       -1.8811875972        3.8060268548
HB           -4.2537376597       -0.5844906419        3.2805265953
HB           -4.0477489286       -2.0377505240        2.2733461900
C            -1.3061654775       -1.6798286274        1.7577060736
O            -1.4322032720       -2.3078219145        0.7023881947
N            -0.2568067303       -1.8442835311        2.5740981976
H            -0.2563934462       -1.2875842493        3.4181843553
CA            0.8961482138       -2.7508142913        2.4096648552
HA            1.5759066035       -2.5151055740        3.2304109930
CB            0.4283145104       -4.1955082118        2.6477731280
HB           -0.2273381527       -4.5173632860        1.8378802683
HB           -0.1092617116       -4.2618866960        3.5946985620
HB            1.2916361777       -4.8609302260        2.6885846244
C             1.7649525148       -2.6001268884        1.1302849306
O             2.8512087649       -3.1848598366        1.0675596863
N             1.3367817281       -1.8142192282        0.1345508119
H             0.3943345980       -1.4578601194        0.2153571721
CA            2.0143726790       -1.6228381046       -1.1576058051
HA            3.0176000116       -2.0478373274       -1.1009461766
CB            1.2303676748       -2.4178745404       -2.2124831403
HB            0.2280287685       -2.0017338358       -2.3245931284
HB            1.7459507050       -2.3705844676       -3.1724338725
HB            1.1541471783       -3.4629935820       -1.9091516055
C             2.2039335300       -0.1397834108       -1.5670432764
O             2.7069913367        0.1332193772       -2.6624352912
N             1.8241775228        0.8056694035       -0.6939719864
H             1.4543973148        0.4838821921        0.1876704815
CA            1.7338043675        2.2548006444       -0.9346056621
HA            1.3057862759        2.6856315106       -0.0275897370
CB            3.1474745229        2.8508052886       -1.0570869522
HB            3.0953298689        3.9399759760       -1.0469126421
HB            3.7618031418        2.5255002245       -0.2163104368
HB            3.6148921879        2.5316309649       -1.9888879527
C             0.7693247504        2.6746961772       -2.0760823184
O             0.2458079109        1.8487344545       -2.8339969770
N             0.5046414667        3.9850439489       -2.1802041901
H             0.9593627112        4.6057677161       -1.5237047942
CH           -0.3891248429        4.5839827775       -3.1730763061
HH           -0.4293760079        5.6665176460       -3.0370679137
HH           -1.3970016065        4.1778599381       -3.0651213101
HH           -0.0279421639        4.3689958066       -4.1809678446
    52
 Energy=    -34.6410318505616
HH           -3.2120136746        1.0835521610       -1.4592338821
CH           -2.9292817118        1.8067708517       -0.6954546393
HH           -2.2747496915        2.5603532409       -1.1304663375
HH           -3.8236938351        2.2863209012       -0.2997797350
C            -2.2078384359        1.0918638456        0.4239676881
O            -1.0344239621        1.3620328646        0.6770189146
N            -2.9044514758        0.1772702664        1.0967625671
H            -3.8599051938        0.0077757268        0.8193107938
CA           -2.3581085550       -0.6120924159        2.2042477017
HA           -1.8799960206        0.0757146660        2.9049006273
CB           -3.5155138446       -1.2967017432        2.9435468340
HB           -3.1291876045       -1.8481722008        3.8020164203
HB           -4.2250724828       -0.5473958523        3.2977942689
HB           -4.0277846266       -1.9917177198        2.2761406676
C            -1.2916062261       -1.6280345993        1.7374257706
O            -1.4093698998       -2.2176959078        0.6592367920
N            -0.2598172975       -1.8366322835        2.5663894723
H            -0.2695864907       -1.3073036792        3.4278059384
CA            0.8857494024       -2.7534061192        2.4011597063
HA            1.5427822769       -2.5617270967        3.2513980548
CB            0.3907459756       -4.1989435442        2.5654297360
HB           -0.2468331516       -4.4769059730        1.7253895070
HB           -0.1733631004       -4.2965866115        3.4940474766
HB            1.2435987153       -4.8781083008        2.6007542418
C             1.7951741957       -2.5710032007        1.1552410350
O             2.9283101293       -3.0623003558        1.1608665538