    52
Energy=    -37.1507490201100    
HH        -1.705401371       -0.7630589336        -2.155776627    
CH        -1.250565619        -1.729314828        -1.941630401    
HH        -1.828191248        -2.518169892        -2.421537182    
HH       -0.2294137209        -1.742126086        -2.320170616    
C         -1.240293847        -1.954708970       -0.4464661614    
O        -0.1715780441        -2.116101260        0.1402350714    
N         -2.430376857        -1.974245342        0.1572754746    
H         -3.238468040        -1.836054918       -0.4320895886    
CA        -2.683466864        -2.134174334         1.596581940    
HA        -3.729941841        -1.867972187         1.755486684    
CB        -2.569350097        -3.617802820         1.987879298    
HB        -1.559142731        -3.986725824         1.806083737    
HB        -2.813106390        -3.739952810         3.044301304    
HB        -3.270835324        -4.207784298         1.396355065    
C         -1.885440609        -1.153940687         2.490401261    
O         -2.324507525       -0.2035390888E-01     2.707318773    
N        -0.7189141193        -1.566716737         3.002003124    
H        -0.4136689245        -2.502885575         2.777233727    
CA        0.1829183904       -0.7295730987         3.803360006    
HA       -0.4129670202       -0.1761751926         4.531406934    
CB         1.124897999        -1.662445740         4.576007169    
HB         1.747635437        -2.227127619         3.880227416    
HB        0.5438403935        -2.355567362         5.186187354    
HB         1.768403512        -1.073945219         5.231433375    
C         0.9701172771        0.3131665073         2.971235357    
O          1.537877516         1.253770684         3.536110522    
N         0.9965343251        0.1613779876         1.642301467    
H         0.5090265170       -0.6402402897         1.259063980    
CA         1.638286253         1.055769198        0.6742833538    
HA         2.103445296         1.891724174         1.199799672    
CB         2.753153380        0.2649372480       -0.2736703264E-01
HB         2.324727962       -0.5654402644       -0.5912799555    
HB         3.302901309        0.9142017151       -0.7098952354    
HB         3.450158730       -0.1284297322        0.7142497180    
C         0.6248176125         1.657165422       -0.3273911746    
O        -0.5417636971         1.254125247       -0.3830405292    
N          1.076075547         2.616450244        -1.143990475    
H          2.036565097         2.915288196        -1.044634938    
CA        0.2501777799         3.300084848        -2.148998658    
HA       -0.6975093117         3.576940030        -1.683460736    
CB        0.9724685276         4.594368613        -2.546495483    
HB        0.3533760770         5.161330376        -3.243147035    
HB         1.924303935         4.360917339        -3.026303506    
HB         1.153283605         5.206533416        -1.661669057    
C        -0.9155419885E-01     2.436112885        -3.389166575    
O         -1.006493424         2.779501654        -4.146051966    
N         0.6217502474         1.320358688        -3.606041925    
H          1.362294374         1.112275724        -2.951140621    
CH        0.4114198051        0.3900924775        -4.716359407    
HH       -0.6059782575       -0.5533739672E-02    -4.686751949    
HH        0.5637359760        0.9021525393        -5.668755660    
HH         1.114736502       -0.4420777392        -4.647209288    
    52
Energy=    -34.6606897879932    
HH        -1.857047902        -2.621038795        -1.988525845    
CH        -1.525067614        -3.429500859        -1.338333310    
HH        -2.234449325        -4.254406387        -1.390759576    
HH       -0.5420727055        -3.773137023        -1.657795775    
C         -1.448733507        -2.923697092        0.8378281056E-01
O        -0.3690319660        -2.911331390        0.6724936873    
N         -2.595603728        -2.512282074        0.6277161605    
H         -3.421787728        -2.577389483        0.5076112110E-01
CA        -2.765301131        -1.927867597         1.965127394    
HA        -3.761027595        -1.481357492         1.984043456    
CB        -2.787992123        -3.042463718         3.025889118    
HB        -1.840426058        -3.582648645         3.036208542    
HB        -2.968249564        -2.610259296         4.011343513    
HB        -3.590777333        -3.745906759         2.800562399    
C         -1.797648625       -0.7551771893         2.254125693    
O         -2.055688502        0.3748147370         1.828024996    
N        -0.6815658150        -1.006639111         2.950007028    
H        -0.5223759258        -1.954923403         3.258808992    
CA        0.3529397029       -0.8413979971E-02     3.242921690    
HA       -0.1291635346        0.8804608955         3.654034097    
CB         1.276075732       -0.5897277594         4.321642219    
HB         1.780712888        -1.480778434         3.944438189    
HB        0.6948712841       -0.8506263005         5.207382454    
HB         2.025977609        0.1518784660         4.600621014    
C          1.152381899        0.4370372313         1.995375469    
O          1.698800904         1.544507873         1.975764082    
N          1.203540004       -0.3924690498        0.9452475223    
H         0.7298122308        -1.285625073         1.023160324    
CA         1.812922180       -0.6921574137E-01   -0.3457143186    
HA         2.661844964        0.5980210812       -0.1830616913    
CB         2.368725188        -1.361433517       -0.9630116506    
HB         1.563342555        -2.074218985        -1.143064039    
HB         2.858856407        -1.133018084        -1.910316111    
HB         3.098969454        -1.809564468       -0.2878142865    
C         0.8041996846        0.6670986492        -1.254569555    
O         0.5840928647E-01    0.4890943161E-01    -2.021604458    
N         0.7705405366         2.000417799        -1.152802247    
H          1.379356960         2.437699340       -0.4739981798    
CA       -0.1735977332         2.864323709        -1.873892679    
HA        -1.150596543         2.377563741        -1.878001669    
CB       -0.3088981514         4.170940983        -1.080432502    
HB        -1.058289374         4.809978894        -1.549489417    
HB        0.6459976920         4.698589426        -1.060653306    
HB       -0.6240208677         3.954397309       -0.5852802419E-01
C         0.2021294529         3.129107135        -3.353067646    
O        -0.6349566270         3.609603778        -4.125457775    
N          1.442624509         2.821255461        -3.761185680    
H          2.073494254         2.439535346        -3.070234116    
CH         1.949415976         3.002458749        -5.122510669    
HH         1.353459621         2.417006560        -5.825815825    
HH         1.896176438         4.055776797        -5.405815564    
HH         2.988792867         2.673734119        -5.183026056    
    52
Energy=    -39.4439050626156    
HH        -3.810338815        -1.170084620        -1.727119463    
CH        -3.333069605        -2.082629006        -1.372417388    
HH        -4.092246606        -2.762335454       -0.9875736278    
HH        -2.800089449        -2.559309158        -2.194165379    
C         -2.361229736        -1.743116016       -0.2648586493    
O         -1.172531794        -2.042029243       -0.3772764222    
N         -2.876625781        -1.129516313        0.8027440515    
H         -3.866425144       -0.9314589461        0.7853030217    
CA        -2.130850058       -0.7108194858         1.998991460    
HA        -2.779955479       -0.4735584028E-01     2.572822393    
CB        -1.895004556        -1.959272370         2.871962296    
HB        -1.183574811        -2.631071521         2.389043642    
HB        -1.511782390        -1.669349040         3.851121906    
HB        -2.837546636        -2.488512520         3.021023026    
C        -0.8590600921        0.1196195890         1.679451291    
O        -0.8053211570        0.8384034062        0.6757974279    
N         0.1746987020        0.4145160726E-01     2.526666704    
H         0.7819965234E-01   -0.5497713745         3.340170949    
CA         1.422904801        0.8026269321         2.386315247    
HA         1.171932950         1.864159337         2.343018587    
CB         2.261364797        0.5644504857         3.648943449    
HB         2.533488884       -0.4895765835         3.726034528    
HB         1.693986724        0.8575925568         4.533585639    
HB         3.171816932         1.163852049         3.603503027    
C          2.227971301        0.4726071543         1.106397312    
O          3.043992363         1.288327458        0.6675504106    
N          1.984778663       -0.6864770588        0.4790509400    
H          1.321563368        -1.324352619        0.8954577916    
CA         2.584290337        -1.064187273       -0.8051102873    
HA         3.650618174       -0.8328519399       -0.7727592069    
CB         2.439520810        -2.581782471       -0.9745597187    
HB         1.385567027        -2.857422706        -1.024626005    
HB         2.931467661        -2.895118111        -1.896362757    
HB         2.908284806        -3.095977653       -0.1343178753    
C          1.983464093       -0.2938068386        -2.004089647    
O          2.674611196       -0.8147246723E-01    -3.005439787    
N         0.7255956160        0.1563007221        -1.899978986    
H         0.2073447660       -0.8240861652E-01    -1.063990526    
CA        0.5642291905E-01     1.008015435        -2.890568710    
HA        0.5251088908        0.8640912574        -3.865563843    
CB        -1.401775839        0.5489609911        -3.007726793    
HB        -1.907396207         1.130592656        -3.779657140    
HB        -1.918303249        0.6953806106        -2.058182169    
HB        -1.436778389       -0.5059348370        -3.282843737    
C         0.1529377868         2.513380335        -2.554176634    
O         0.2398923237         3.347070439        -3.462269026    
N         0.1607333072         2.867411215        -1.260877699    
H         0.2706360619E-01     2.128112054       -0.5791597057    
CH        0.2860184623         4.236222092       -0.7613450063    
HH         1.239015929         4.665171288        -1.077818936    
HH       -0.5267001093         4.853622858        -1.149568655    
HH        0.2419493580         4.240577357        0.3294486800    
