    52
Energy=    -35.3093212065625    
HH        -2.141216048         3.063421354        0.3376920588    
CH        -1.893038780         3.314578605         1.368030736    
HH        -1.089675394         4.050303025         1.381727830    
HH        -2.772832833         3.725912689         1.861475983    
C         -1.452259841         2.065829827         2.098570335    
O        -0.3487977106         2.023661560         2.641845897    
N         -2.312839711         1.049121711         2.109829881    
H         -3.194489198         1.169648610         1.633843866    
CA        -2.044401484       -0.2499762058         2.734340864    
HA        -1.605665501       -0.7157641259E-01     3.718201515    
CB        -3.379096523       -0.9775378811         2.946040641    
HB        -3.206706945        -1.923341843         3.461713452    
HB        -4.044793411       -0.3629365592         3.553927182    
HB        -3.852375889        -1.179053886         1.983618007    
C         -1.043872727        -1.105727309         1.925498508    
O        -0.9523387539       -0.9858779806        0.6989222779    
N        -0.3164134778        -1.994161291         2.614640786    
H        -0.4640882978        -2.038249943         3.613205895    
CA        0.7001571271        -2.896384164         2.056397144    
HA         1.287418194        -3.266813269         2.898526404    
CB        0.1087237443E-01    -4.132099157         1.449888545    
HB       -0.6361815938        -3.842263588        0.6206638641    
HB       -0.5953791924        -4.623655807         2.212185302    
HB        0.7624246226        -4.839085519         1.094927234    
C          1.724543753        -2.178928967         1.141251090    
O          2.559651409        -1.413992229         1.633349833    
N          1.667671823        -2.403080259       -0.1778462095    
H         0.9576094514        -3.035598809       -0.5177356253    
CA         2.566911093        -1.797489269        -1.168191469    
HA         3.581914767        -1.816952032       -0.7671446433    
CB         2.543035403        -2.682565247        -2.421603191    
HB         1.545859326        -2.677834176        -2.864623148    
HB         3.257949557        -2.303517301        -3.153120453    
HB         2.818987721        -3.705377471        -2.160723863    
C          2.246085539       -0.3200102286        -1.508382757    
O          3.063175931        0.3450242635        -2.154648063    
N          1.088655510        0.1940539241        -1.065288600    
H         0.4938189359       -0.4219636381       -0.5239537724    
CA        0.5425031512         1.529109564        -1.351464446    
HA       -0.4554000583         1.552175753       -0.9107238996    
CB         1.370495126         2.584273398       -0.5946957502    
HB        0.8646223319         3.549741681       -0.6205141917    
HB         1.488827977         2.285820612        0.4477552791    
HB         2.355634721         2.690313487        -1.049925209    
C         0.3322711195         1.843835127        -2.857698970    
O         0.5713283805         1.008753616        -3.739034470    
N        -0.1706568948         3.050482934        -3.156969396    
H        -0.3565434990         3.681782961        -2.389207458    
CH       -0.4622593059         3.525541431        -4.510818797    
HH       -0.8549622622         4.543647789        -4.474951961    
HH        -1.203846513         2.878629035        -4.984229978    
HH        0.4477068001         3.520387286        -5.114574089    
    52
Energy=    -33.5205243120247    
HH        -3.063468205         1.924057852       -0.5856464931    
CH        -2.845509780         2.490122222        0.3192651608    
HH        -2.227899090         3.352660897        0.7153022515E-01
HH        -3.778472047         2.827761004        0.7691152724    
C         -2.112216697         1.601968922         1.298755834    
O        -0.9754652140         1.894786044         1.667714693    
N         -2.754809876        0.5122982609         1.714433670    
H         -3.682109112        0.3411995646         1.354717770    
CA        -2.175081497       -0.4828747710         2.620950653    
HA        -1.668619034        0.4742362216E-01     3.430137956    
CB        -3.312006406        -1.302487340         3.246266717    
HB        -2.902002820        -2.013664246         3.964869248    
HB        -4.005838822       -0.6393969552         3.765220784    
HB        -3.849026698        -1.850999421         2.470635353    
C         -1.130981980        -1.382795863         1.922517384    
O         -1.265962047        -1.699074230        0.7366397722    
N        -0.1176323847        -1.820731300         2.681941941    
H        -0.1192134633        -1.511998772         3.644373900    
CA         1.006586134        -2.692751810         2.298623541    
HA         1.681451301        -2.705243908         3.156535917    
CB        0.5067481467        -4.138039793         2.144698638    
HB       -0.1884519501        -4.215141118         1.307892404    
HB        0.1502997205E-02    -4.454104759         3.058447777    
HB         1.353954506        -4.801217361         1.964226726    
C          1.879673542        -2.212615367         1.112493110    
O          3.047319418        -1.862467161         1.307803480    
N          1.338398216        -2.198273519       -0.1093042359    
H         0.3590626029        -2.448996844       -0.1805565444    
CA         2.048828333        -1.859281308        -1.347878536    
HA         3.078110243        -2.213383664        -1.266505769    
CB         1.379512402        -2.632349105        -2.491741196    
HB        0.3477319838        -2.299441297        -2.615352313    
HB         1.923072086        -2.457258670        -3.421135998    
HB         1.391115104        -3.701526547        -2.274903658    
C          2.115639284       -0.3431917500        -1.650069076    
O          2.931357064        0.7532824598E-01    -2.478746155    
N          1.288654518        0.4695700137       -0.9742388777    
H         0.6697774092        0.3029900649E-01   -0.3093066175    
CA         1.113654566         1.916562551        -1.180718196    
HA        0.2937181122         2.226733172       -0.5336060011    
CB         2.362607692         2.654475424       -0.6641150889    
HB         2.175782335         3.727968221       -0.6248315532    
HB         2.605636294         2.311248941        0.3425887485    
HB         3.212444756         2.468916216        -1.321566034    
C         0.6737675599         2.328834168        -2.611672537    
O         0.4682483092         1.491483275        -3.499107838    
N         0.4750729702         3.637462331        -2.826340978    
H         0.6470640855         4.267585241        -2.054211232    
CH        0.3429918027E-01     4.222485291        -4.093987703    
HH       -0.3855407526E-01     5.307894855        -4.001199748    
HH       -0.9451568434         3.826180144        -4.369972310    
HH        0.7476871908         3.984001195        -4.885681988    
    52
Energy=    -36.1555293799354    
HH        -3.270052467        0.3774554027        -1.172162783    
CH        -2.796895533         1.124408291       -0.5359120972    
HH        -2.060562483         1.681648156        -1.113994483    
HH        -3.553946439         1.807246296       -0.1523388909    
C         -2.115864963        0.4345559960        0.6222359148    
O        -0.9043772120        0.5696164368        0.7940822187    
N         -2.881564880       -0.3198429194         1.409807289    
H         -3.865204483       -0.3890688738         1.194156135    
CA        -2.375847718        -1.056992381         2.571212921    
HA        -1.940782357       -0.3370457695         3.267366328    
CB        -3.554571456        -1.737819097         3.279811450    
HB        -3.194831488        -2.265429891         4.164344772    
HB        -4.284365238       -0.9884373274         3.589783800    
HB        -4.034698408        -2.452838119         2.609726636    
C         -1.277548198        -2.065121492         2.167045542    
O         -1.499589449        -2.939302237         1.322612853    
N        -0.8378929079E-01    -1.916225325         2.756902485    
H        -0.9393833859E-03    -1.190326527         3.455771712    
CA         1.147719921        -2.646987163         2.419019317    
HA         1.952644873        -2.136927683         2.951015668    
CB         1.074708472        -4.065896217         3.008982975    
HB        0.3226379607        -4.654346345         2.482443485    
HB        0.8157140677        -4.015239242         4.067387064    
HB         2.042975541        -4.558220201         2.910822144    
C          1.568217114        -2.589030215        0.9236206951    
O          2.316242394        -3.453567433        0.4540069221    
N          1.101700239        -1.579058528        0.1734114221    
H         0.4674047636       -0.9270913024        0.6169026626    
CA         1.336944941        -1.420193729        -1.270490570    
HA         2.144841721        -2.084467909        -1.581415759    
CB        0.6006043322E-01    -1.861218980        -1.999195633    
HB       -0.7713892565        -1.208834412        -1.729031640    
HB        0.2163885771        -1.809798712        -3.077503691    
HB       -0.1864098817        -2.888875603        -1.728476293    
C          1.753560183        0.6952743873E-02    -1.699786113    
O          2.442752158        0.1551077411        -2.714412479    
N          1.376930432         1.037048432       -0.9269462898    
H         0.7838342187        0.8217024341       -0.1356951880    
CA         1.574570390         2.468103909        -1.205188117    
HA         1.050470149         3.010560620       -0.4161314111    
CB         3.066640813         2.812903226        -1.041319705    
HB         3.205540710         3.894390487        -1.046327746    
HB         3.435079140         2.423805020       -0.9094855971E-01
HB         3.648078207         2.379800551        -1.855781655    
C         0.9438030955         2.968972064        -2.533237294    
O         0.2947257347         2.217674233        -3.271694730    
N          1.092097060         4.270908325        -2.817943664    
H          1.620435225         4.833275154        -2.164120092    
CH        0.5527521062         4.937244236        -4.004868016    
HH        0.8245696458         5.994648796        -3.997734799    
HH       -0.5359875869         4.853682187        -4.020320662    
HH        0.9551781818         4.476492696        -4.909494051    
