    52
Energy=    -36.4742852091586    
HH        -3.584542792         2.328917153        0.8928626555    
CH        -2.570014162         2.189863487        0.5214663560    
HH        -1.899746110         2.882088812         1.029334199    
HH        -2.547114252         2.378461048       -0.5511435151    
C         -2.127553148        0.7705494565        0.7975018836    
O         -1.792038182        0.3888698938E-01   -0.1333803390    
N         -2.132506773        0.3878165410         2.076535319    
H         -2.433741903         1.066953837         2.760272915    
CA        -1.683334539       -0.9190471021         2.579858078    
HA        -1.593597151       -0.8387584081         3.664473733    
CB        -2.795648624        -1.950427965         2.306675767    
HB        -2.575000761        -2.887249285         2.820000887    
HB        -2.887169637        -2.136990991         1.235544782    
HB        -3.747798842        -1.573472705         2.683390567    
C        -0.2707568728        -1.310479231         2.069265579    
O         0.5943278386       -0.4455132245         1.893876653    
N        -0.1457246510E-01    -2.602865014         1.827836114    
H        -0.7504239445        -3.273670451         1.998768833    
CA         1.284419068        -3.119781806         1.374284160    
HA         2.047614145        -2.796959031         2.084865984    
CB         1.218384810        -4.652212867         1.413007254    
HB        0.4648952414        -5.013789093        0.7112394924    
HB        0.9667450128        -4.988863051         2.419874904    
HB         2.188596733        -5.068369924         1.137771672    
C          1.717962004        -2.610839949       -0.2245945487E-01
O          2.911003243        -2.623406881       -0.3401931027    
N         0.7744825852        -2.130785009       -0.8434958053    
H        -0.1854867067        -2.164623051       -0.5308593067    
CA         1.037336800        -1.511170648        -2.147974869    
HA         1.877767198        -2.027277802        -2.615493151    
CB       -0.1957102992        -1.737507073        -3.032626432    
HB        -1.058683888        -1.219172260        -2.612429580    
HB       -0.4524106896E-02    -1.352497251        -4.035038747    
HB       -0.4127947833        -2.804310743        -3.102521812    
C          1.419438485       -0.1154947414E-01    -2.065569699    
O          1.859212022        0.5593974516        -3.069506720    
N          1.282179370        0.6071711691       -0.8826059503    
H         0.9379249038        0.4205339435E-01   -0.1175112983    
CA         1.438290269         2.039967685       -0.5938066127    
HA         1.163899024         2.162740894        0.4556579226    
CB         2.923629081         2.429906794       -0.6891052456    
HB         3.069326807         3.439985147       -0.3047442740    
HB         3.527138856         1.741927043       -0.9519948243E-01
HB         3.258011781         2.398224308        -1.726408049    
C         0.4888067276         2.986988483        -1.375150570    
O        -0.1880230930         2.600458461        -2.335262317    
N         0.4159651840         4.250195046       -0.9316231066    
H         0.9946977839         4.501691885       -0.1409656661    
CH       -0.4385519528         5.291544541        -1.504754374    
HH        -1.487392405         4.994744900        -1.438403055    
HH       -0.1823781500         5.451944840        -2.554117561    
HH       -0.3029491316         6.229110725       -0.9620156164    
    52
Energy=    -32.6689065469491    
HH        -4.459532994        0.1393010359        0.4703080431    
CH        -3.567214807        0.6879719260        0.1714282285    
HH        -3.618839875         1.705362860        0.5572461038    
HH        -3.502103526        0.7133057240       -0.9157756623    
C         -2.346190007        0.3827360652E-03    0.7355349149    
O         -1.480978287       -0.4148123050       -0.2897568940E-01
N         -2.290869172       -0.9430577778E-01     2.065568681    
H         -3.075082047        0.3098388848         2.556627522    
CA        -1.270779547       -0.7233295474         2.923940750    
HA       -0.8883246741        0.6084741296E-01     3.579679737    
CB        -1.975645077        -1.745513258         3.830558630    
HB        -1.249931001        -2.203054604         4.504854572    
HB        -2.451578079        -2.523873970         3.232299796    
HB        -2.738558569        -1.244469369         4.428236811    
C        -0.2374901308E-01    -1.325285951         2.227507401    
O          1.053035466       -0.7222763051         2.259378153    
N        -0.1507353161        -2.509875725         1.613528879    
H         -1.064188875        -2.940527194         1.607158747    
CA        0.9690910126        -3.276559684         1.051210259    
HA         1.775850597        -3.292827562         1.786357974    
CB        0.4907481711        -4.720184646        0.8482855097    
HB       -0.3163943537        -4.748816336        0.1144043476    
HB        0.1347773924        -5.130974911         1.794315952    
HB         1.318473268        -5.333791430        0.4897833016    
C          1.558100113        -2.691587829       -0.2539741584    
O          2.724841795        -2.945995074       -0.5695810201    
N         0.7777791448        -1.902354631        -1.001094585    
H        -0.1646701615        -1.727636745       -0.6707587390    
CA         1.200684978        -1.203458224        -2.220831712    
HA         2.081017190        -1.697956446        -2.634767800    
CB        0.7066449387E-01    -1.329695772        -3.250293056    
HB       -0.8299746088       -0.8362589997        -2.881579050    
HB        0.3746275215       -0.8605137267        -4.186905921    
HB       -0.1452566531        -2.382493692        -3.437484158    
C          1.581470655        0.2744166689        -1.972751630    
O          2.400938677        0.8278839683        -2.713618948    
N          1.020894825        0.8875204070       -0.9197497008    
H         0.3459979969        0.3443936224       -0.3965493880    
CA         1.169295199         2.295813324       -0.5249976925    
HA        0.4874915266         2.454500457        0.3124960620    
CB         2.588395789         2.512238429        0.3227272985E-01
HB         2.661774913         3.491576272        0.5059472597    
HB         2.812420557         1.750791738        0.7810042691    
HB         3.323834866         2.453009928       -0.7706882028    
C         0.7418751498         3.329187842        -1.603025387    
O         0.2851175950         2.980201128        -2.698797005    
N         0.8446671033         4.624103868        -1.270012515    
H          1.211484265         4.841370304       -0.3528860926    
CH        0.4727449193         5.745361967        -2.134966482    
HH       -0.5883417103         5.689383728        -2.387014602    
HH         1.056774745         5.717775161        -3.057318522    
HH        0.6640687277         6.691890123        -1.625536914    
    52
Energy=    -37.9782296581974    
HH        -4.263942101        -1.698326237        0.2798912809    
CH        -3.950946010       -0.6668915027        0.1225229074    
HH        -4.638779885        0.4016472136E-02    0.6356974015    
HH        -3.950344931       -0.4434566106       -0.9437437274    
C         -2.560898121       -0.4753320518        0.6797308624    
O         -1.640063443       -0.1286979909       -0.5792162407E-01
N         -2.394101037       -0.7267883479         1.977838501    
H         -3.203897493        -1.013161404         2.509604756    
CA        -1.137737975       -0.5090513213         2.707962017    
HA       -0.8479304942        0.5358385030         2.582470459    
CB        -1.412851826       -0.7497660014         4.198057841    
HB       -0.5117903869       -0.5401893939         4.776332855    
HB        -1.707801159        -1.787442941         4.362759622    
HB        -2.210067925       -0.8844253718E-01     4.540781769    
C         0.4420305894E-01    -1.372681171         2.207902692    
O          1.205220097       -0.9963737439         2.392098076    
N        -0.2345580185        -2.498523531         1.537749801    
H         -1.204296064        -2.769451530         1.455453412    
CA        0.7739157351        -3.351963839        0.8997695871    
HA         1.589757442        -3.514860444         1.606456290    
CB        0.1233693772        -4.710047260        0.6063942359    
HB       -0.6961564527        -4.589338975       -0.1040274260    
HB       -0.2596273082        -5.146096030         1.530291094    
HB        0.8652297973        -5.387302233        0.1807884843    
C          1.387927988        -2.730715704       -0.3778375749    
O          2.511150963        -3.082054149       -0.7521348489    
N         0.6770702666        -1.801995696        -1.033081900    
H        -0.2408214179        -1.573035479       -0.6739011829    
CA         1.137195827        -1.065214701        -2.217082532    
HA         1.999636262        -1.574357826        -2.650409360    
CB        0.1269965482E-01    -1.096220785        -3.259913035    
HB       -0.8727277068       -0.5879737718        -2.874878592    
HB        0.3436290347       -0.5929679140        -4.169368085    
HB       -0.2408694190        -2.129408912        -3.501444577    
C          1.577619695        0.3805232874        -1.894766482    
O          2.535339062        0.8764459666        -2.497501657    
N         0.9142925092         1.026079797       -0.9236310906    
H         0.1224521014        0.5413719741       -0.5190632860    
CA         1.121067645         2.411729870       -0.4773445239    
HA        0.3326126084         2.623926492        0.2470508741    
CB         2.448572092         2.491341692        0.2991963176    
HB         2.532601639         3.453847818        0.8045379475    
HB         2.484665497         1.703449405         1.053228503    
HB         3.292805249         2.375121023       -0.3812065860    
C         0.9609499644         3.489977995        -1.584180054    
O         0.6275743027         3.196277444        -2.739163864    
N          1.151139165         4.765340973        -1.215836985    
H          1.405979473         4.938543849       -0.2525797093    
CH         1.024625104         5.923285362        -2.102906787    
HH        0.9473868161E-02     5.982223418        -2.501106260    
HH         1.726089420         5.836857669        -2.935412684    
HH         1.241344575         6.841930824        -1.554123152    
