    52
 Energy=    -41.7229924013841
HH           -3.9993969040       -2.2704746940        0.6277301531
CH           -3.9990474990       -1.2396843790        0.2755884862
HH           -4.7891151540       -0.6833383649        0.7783748730
HH           -4.1671150390       -1.2206582720       -0.8006044076
C            -2.6660264410       -0.6043212070        0.5898575531
O            -1.9550190540       -0.1755339435       -0.3173026896
N            -2.3073285620       -0.5641652720        1.8729892360
H            -2.9495406220       -0.9433638045        2.5543600730
CA           -1.0898564720        0.0914010707        2.3676308170
HA           -1.1316737350        1.1458840600        2.0910774750
CB           -1.0937718310        0.0027003369        3.8992213190
HB           -0.2230967345        0.5248456708        4.2987870130
HB           -1.0591078740       -1.0409608680        4.2162853590
HB           -1.9955146620        0.4711688598        4.2964378560
C             0.2133188457       -0.4902887365        1.7751662420
O             1.1841439280        0.2443516742        1.5765228350
N             0.2246339466       -1.7838186640        1.4290213370
H            -0.5980267932       -2.3338481380        1.6332177340
CA            1.3592340950       -2.4545705780        0.7846401684
HA            2.2597318640       -2.2468533430        1.3656332160
CB            1.1011152920       -3.9660419670        0.8312690262
HB            0.2066499529       -4.2130790730        0.2569606773
HB            0.9682263107       -4.2888119000        1.8649823700
HB            1.9541088460       -4.4966275820        0.4057344426
C             1.6214232080       -1.9708222430       -0.6611055517
O             2.7572996860       -2.0491051060       -1.1388669440
N             0.5960161331       -1.4465204210       -1.3464776210
H            -0.3103680101       -1.4243011470       -0.8971321060
CA            0.6990595183       -0.8482490032       -2.6820704520
HA            1.5833254580       -1.2404525120       -3.1873647370
CB           -0.5271915824       -1.2842064470       -3.4943742090
HB           -1.4403564510       -0.9040000745       -3.0339713420
HB           -0.4517378912       -0.8921760930       -4.5095562900
HB           -0.5732686501       -2.3732080760       -3.5404623220
C             0.8419567036        0.6889315801       -2.6379633290
O             1.5512161950        1.2685537100       -3.4659741390
N             0.2012642083        1.3519388540       -1.6664620220
H            -0.4199882135        0.8248499042       -1.0637022250
CA            0.2380209923        2.8084200180       -1.4963272760
HA            0.1205907672        3.2749396100       -2.4761804570
CB           -0.9673484117        3.2117298540       -0.6374967386
HB           -1.0072853180        4.2983197000       -0.5500478835
HB           -0.8795478538        2.7786647820        0.3593838329
HB           -1.8900795800        2.8623733540       -1.1032554060
C             1.5620562980        3.3349572480       -0.8940254562
O             1.9500191120        4.4772667420       -1.1631409510
N             2.2665026100        2.5177216070       -0.0974425556
H             1.8618767660        1.6141521830        0.1197126499
CH            3.5465577710        2.8508442210        0.5272372797
HH            3.8847930960        2.0195317310        1.1488548520
HH            4.2986124630        3.0475677980       -0.2395820076
HH            3.4390555710        3.7383671420        1.1542122420
    52
 Energy=    -37.1156812837266
HH           -4.6678946790       -0.7171386166        0.7725615900
CH           -4.0339435840       -0.0643634982        0.1737591849
HH           -4.3240000640        0.9732211727        0.3347546009
HH           -4.1458256920       -0.3145799168       -0.8806192727
C            -2.5934284860       -0.2506660569        0.5875790191
O            -1.7705335420       -0.6232813985       -0.2429690054
N            -2.3101907740        0.0312046957        1.8610132640
H            -3.0941725470        0.3430398182        2.4157712090
CA           -1.0313923170       -0.0747492131        2.5864890090
HA           -0.8001925954        0.9244540021        2.9598497280
CB           -1.2554008030       -0.9621388558        3.8218145470
HB           -0.3322411206       -1.0309583760        4.3995463400
HB           -1.5684719950       -1.9634817980        3.5224672860
HB           -2.0298882570       -0.5254193679        4.4540860880
C             0.2124730862       -0.5088870540        1.7716523810
O             1.0367270230        0.3338705622        1.4073634950
N             0.3597716713       -1.8084036090        1.4803658160
H            -0.3642402348       -2.4438195840        1.7835755430
CA            1.5551262200       -2.3862885980        0.8518373881
HA            2.4280940700       -2.0738066640        1.4278916890
CB            1.4445711160       -3.9131296020        0.9527371048
HB            0.5800566081       -4.2653377640        0.3875019732
HB            1.3400048090       -4.2107442270        1.9972006540
HB            2.3462211170       -4.3736060810        0.5463103549
C             1.7904496540       -1.9373044560       -0.6093100416
O             2.9356882040       -1.9228507350       -1.0711205340
N             0.7311550638       -1.5452191110       -1.3264283920
H            -0.1778358955       -1.5814218170       -0.8782492230
CA            0.7915336293       -0.9701447503       -2.6746306770
HA            1.7225505460       -1.2726640750       -3.1569666950
CB           -0.3667128342       -1.5579571580       -3.4908072710
HB           -1.3223097560       -1.2704407190       -3.0494412150
HB           -0.3207699412       -1.1834939740       -4.5143216990
HB           -0.2916876153       -2.6461243980       -3.5104921480
C             0.7601147600        0.5747841555       -2.6676716450
O             1.3290339930        1.2104296960       -3.5603788760
N             0.1241398978        1.1844616650       -1.6593368290
H            -0.3609800903        0.6003105392       -0.9894348909
CA            0.0137339448        2.6381948780       -1.5018041870
HA           -0.2196513725        3.0774623980       -2.4734635460
CB           -1.1651867380        2.9208799980       -0.5614804063
HB           -1.3074939830        3.9983151490       -0.4674319927
HB           -0.9672950243        2.5018822480        0.4262759180
HB           -2.0776287680        2.4807613220       -0.9663977979
C             1.3130270870        3.3061074850       -0.9944922061
O             1.5876403760        4.4618326210       -1.3359049220
N             2.1218751190        2.5902325930       -0.2001621492
H             1.7985092380        1.6712298930        0.0831700099
CH            3.3989683530        3.0552777820        0.3402204608
HH            3.8404256990        2.2811950590        0.9708860907
HH            4.0898658540        3.2843899380       -0.4737141751
HH            3.2476118680        3.9548836000        0.9403490518
    52
 Energy=    -39.4439050626149
HH           -4.7724202300        1.0528242540        1.2115478390
CH           -3.8914090830        1.3349313250        0.6364910999
HH           -3.5473436950        2.3166374480        0.9593050036
HH           -4.1424617780        1.3660129440       -0.4230220204
C            -2.7974460700        0.3175819132        0.8703142432
O            -2.3591117770       -0.3411524263       -0.0725122474
N            -2.3719507340        0.1897322164        2.1290919780
H            -2.8025490260        0.7843886734        2.8220584310
CA           -1.3281551670       -0.7350991200        2.5956475940
HA           -1.0588377290       -0.4382806652        3.6106208520
CB           -1.9518372630       -2.1410471340        2.6989269620
HB           -1.2715352310       -2.8197390630        3.2149063430
HB           -2.1696484710       -2.5335206520        1.7043518680
HB           -2.8792772740       -2.0919504140        3.2717658180
C            -0.0144982725       -0.6558130800        1.7727235520
O             0.3374448065        0.4012355186        1.2382673280
N             0.7305421405       -1.7630535090        1.6656028520
H             0.4075728512       -2.5995109350        2.1310871740
CA            2.0189549550       -1.8324677750        0.9639769185
HA            2.6845877190       -1.0842248340        1.3984628780
CB            2.6235046380       -3.2172005140        1.2304503250
HB            1.9840573370       -3.9940520540        0.8078672558
HB            2.7269549430       -3.3779871180        2.3046419540
HB            3.6109739930       -3.2812493450        0.7710244069
C             1.9329569220       -1.5391505200       -0.5531929369
O             2.9399795460       -1.1708588090       -1.1648654320
N             0.7439176495       -1.6552266570       -1.1605596170
H            -0.0409866935       -1.9806490330       -0.6145194409
CA            0.4994934288       -1.2881686200       -2.5593714310
HA            1.3113262050       -1.6867455860       -3.1706664710
CB           -0.8017761691       -1.9622802270       -3.0121820690
HB           -1.6448825190       -1.5826756290       -2.4339305740
HB           -0.9738497209       -1.7519523940       -4.0686216850
HB           -0.7274815593       -3.0422480450       -2.8769321160
C             0.4617837515        0.2411949364       -2.7866482690
O             0.7951838457        0.7072867155       -3.8807575570
N             0.0981635925        1.0238506340       -1.7615144290
H            -0.1933741759        0.5720605088       -0.9039981291
CA            0.1326131435        2.4911973640       -1.7751099840
HA            0.0656910692        2.8441480900       -2.8056163840
CB           -1.1053923540        3.0047980500       -1.0305582190
HB           -1.1328925260        4.0943458200       -1.0747533490
HB           -1.0705744410        2.6931809200        0.0142177107
HB           -2.0085740640        2.6110485460       -1.4984725750
C             1.4355059250        3.0688207090       -1.1772639460
O             1.9185329150        4.1105473920       -1.6341255400
N             2.0196105260        2.3932232120       -0.1770586648
H             1.5289805140        1.5796539730        0.1786906115
CH            3.2719884360        2.7700408420        0.4774873810
HH            3.5068567020        2.0581216640        1.2710867110
HH            4.0883156540        2.7721792890       -0.2477454315
HH            3.1827731140        3.7672609990        0.9133834298
    52
 Energy=    -39.4439050626131
HH           -4.7724201028        1.0528247680        1.2115478913
CH           -3.8914087519        1.3349318501        0.6364914718
HH           -3.5473431908        2.3166377546        0.9593058509
HH           -4.1424611836        1.3660139692       -0.4230216957
C            -2.7974460380        0.3175820815        0.8703144499
O            -2.3591118704       -0.3411521495       -0.0725121747
N            -2.3719507856        0.1897319942        2.1290921784
H            -2.8025490388        0.7843883202        2.8220587617
CA           -1.3281552233       -0.7350994632        2.5956475716
HA           -1.0588378314       -0.4382813340        3.6106209399
CB           -1.9518372777       -2.1410475265        2.6989264369
HB           -1.2715352355       -2.8197396289        3.2149055725
HB           -2.1696484531       -2.5335206805        1.7043511926
HB           -2.8792772847       -2.0919510498        3.2717653192
C            -0.0144983237       -0.6558131255        1.7727235799
O             0.3374445323        0.4012355416        1.2382673469
N             0.7305423276       -1.7630533913        1.6656028931
H             0.4075732600       -2.5995108764        2.1310872657
CA            2.0189550939       -1.8324673759        0.9639768473
HA            2.6845877280       -1.0842242909        1.3984627510
CB            2.6235050959       -3.2171999805        1.2304501810
HB            1.9840579525       -3.9940516400        0.8078670935
HB            2.7269554524       -3.3779866043        2.3046418000
HB            3.6109744532       -3.2812485608        0.7710242310
C             1.9329568562       -1.5391501801       -0.5531930072
O             2.9399793435       -1.1708582610       -1.1648656025
N             0.7439175567       -1.6552266362       -1.1605595777
H            -0.0409866613       -1.9806491578       -0.6145193091
CA            0.4994931340       -1.2881688255       -2.5593714181
HA            1.3113258200       -1.6867458995       -3.1706665044
CB           -0.8017765279       -1.9622805258       -3.0121817455
HB           -1.6448828311       -1.5826757571       -2.4339302885
HB           -0.9738501556       -1.7519530287       -4.0686214172
HB           -0.7274819274       -3.0422482988       -2.8769314666
C             0.4617834526        0.2411947015       -2.7866484918
O             0.7951832851        0.7072862992       -3.8807579368
N             0.0981636217        1.0238505542       -1.7615146538
H            -0.1933739879        0.5720605226       -0.9039982545
CA            0.1326133895        2.4911972810       -1.7751103024
HA            0.0656915829        2.8441479588       -2.8056167354
CB           -1.1053921806        3.0047982082       -1.0305588193
HB           -1.1328921726        4.0943459784       -1.0747540429
HB           -1.0705745018        2.6931811669        0.0142171458
HB           -2.0085738661        2.6110488119       -1.4984733207
C             1.4355061419        3.0688204505       -1.1772640253
O             1.9185336247        4.1105468092       -1.6341258415
N             2.0196101835        2.3932231406       -0.1770582914
H             1.5289798069        1.5796541699        0.1786910966
CH            3.2719879825        2.7700406054        0.4774880612
HH            3.5068554960        2.0581219174        1.2710880567
HH            4.0883155356        2.7721780510       -0.2477443740
HH            3.1827729941        3.7672611412        0.9133833120
    52
 Energy=    -31.2492205077407
HH           -4.2983007059        1.0771175039       -0.3274924441
CH           -3.2212470139        1.1350168181       -0.4793430747
HH           -2.8520787937        2.0848173101       -0.0950803362
HH           -2.9971807006        1.0616668904       -1.5429437224
C            -2.5539453357       -0.0023204408        0.2590658128
O            -1.9485679143       -0.8698972942       -0.3685689653
N            -2.6636015916        0.0066909575        1.5889045151
H            -3.1870732326        0.7640810771        2.0037455991
CA           -2.0694060677       -0.9781935387        2.5035009696
HA           -2.0880577179       -0.5400487938        3.5028136971
CB           -2.9781860506       -2.2202228917        2.5625885488
HB           -2.6042115078       -2.9208866800        3.3107910375
HB           -3.0175101631       -2.7116805863        1.5891280873
HB           -3.9884360623       -1.9210784266        2.8458837046
C            -0.5726451686       -1.2466457604        2.2044817179
O             0.2361684782       -0.3143859528        2.2268029623
N            -0.1893333734       -2.4917966545        1.8936049336
H            -0.8932891234       -3.2160683782        1.8833827589
CA            1.1930649241       -2.8832040866        1.5850279399
HA            1.8326499889       -2.5507378742        2.4047689182
CB            1.2446106197       -4.4160675684        1.5362130156
HB            0.6194035453       -4.7869399781        0.7222789273
HB            0.8919504014       -4.8309076821        2.4817167935
HB            2.2720932008       -4.7441831575        1.3725153704
C             1.7590569162       -2.2575193593        0.2855379681
O             2.9780007413       -2.2459004080        0.0892698252
N             0.8956229681       -1.7148859462       -0.5829838315
H            -0.0919172163       -1.7712558538       -0.3609157767
CA            1.2436348789       -1.0192268145       -1.8279459919
HA            2.3056791953       -1.1683198101       -2.0283376880
CB            0.4679309872       -1.6877332437       -2.9731450589
HB           -0.6033764738       -1.5303811130       -2.8408731720
HB            0.7757665823       -1.2620141958       -3.9289267001
HB            0.6755699214       -2.7586008946       -2.9861627688
C             1.0326053840        0.5166419069       -1.7613423784
O             1.0599024739        1.1776605000       -2.8021865259
N             0.8125842807        1.0623556387       -0.5525820168
H             0.8038066614        0.4104600918        0.2206456760
CA            0.5801315049        2.4668143234       -0.1682965122
HA           -0.4213172429        2.5123827666        0.2618837248
CB            1.5572802009        2.8181735028        0.9652627277
HB            1.3874379694        3.8450293636        1.2926297230
HB            1.3961767486        2.1527038474        1.8139399499
HB            2.5892332113        2.7147522552        0.6268567840
C             0.6001357573        3.5315290012       -1.2947406124
O            -0.4599314412        4.0274406500       -1.6932700026
N             1.7900948427        3.9018042391       -1.7929696271
H             2.6099236086        3.4435011272       -1.4197525922
CH            1.9847988838        4.8967575950       -2.8483090644
HH            1.4826410285        4.5745645477       -3.7628997412
HH            3.0495104095        5.0200472247       -3.0558066202
HH            1.5721468863        5.8590940447       -2.5383664610
    52
 Energy=    -36.4742852091582
HH           -3.7573392361        2.2174113665       -0.1884001769
CH           -2.6794081508        2.0995204914       -0.2918689543
HH           -2.1727368713        2.8567835810        0.3049574313
HH           -2.4008602132        2.2117127851       -1.3389646117
C            -2.2783693880        0.7257542356        0.1963460327
O            -1.7057661053       -0.0542491505       -0.5640237248
N            -2.5844696585        0.4357479173        1.4630877222
H            -3.0621085534        1.1473224989        1.9969321488
CA           -2.2354805650       -0.8093960836        2.1636625592
HA           -2.4152361984       -0.6475802868        3.2278024683
CB           -3.2184866011       -1.9083593961        1.7146676441
HB           -3.1037511125       -2.7947379625        2.3399605016
HB           -3.0407960366       -2.1751790740        0.6717214486
HB           -4.2438544312       -1.5501505683        1.8191022674
C            -0.7307186383       -1.1701728381        2.0418793786
O             0.1266430094       -0.2806394135        2.0108904202
N            -0.3875848236       -2.4631910719        1.9744799873
H            -1.1239745370       -3.1535744700        2.0166259308
CA            0.9966411610       -2.9502000415        1.8906227559
HA            1.5542213534       -2.5421524929        2.7357318137
CB            0.9657591835       -4.4773361209        2.0359040729
HB            0.4165145514       -4.9229126851        1.2047881053
HB            0.4856151981       -4.7523982435        2.9762449535
HB            1.9849764433       -4.8664982456        2.0371343716
C             1.7434200396       -2.5229143513        0.6031359613
O             2.9778010511       -2.5026268041        0.5843761954
N             1.0157021420       -2.1473188043       -0.4570816985
H             0.0097951066       -2.2033537831       -0.3833337781
CA            1.5714377434       -1.6111083609       -1.7054070630
HA            2.5145150456       -2.1196629013       -1.9133509865
CB            0.5981514374       -1.9573613817       -2.8398956403
HB           -0.3553004595       -1.4510244728       -2.6833319026
HB            1.0172612959       -1.6366124617       -3.7944019162
HB            0.4343938062       -3.0353799069       -2.8736683555
C             1.8800880962       -0.0932739286       -1.6547162536
O             2.5353859412        0.4241991635       -2.5658018886
N             1.4413355236        0.6014767175       -0.5936430970
H             0.9367217799        0.0771619443        0.1089934049
CA            1.4824297029        2.0569820358       -0.3924042546
HA            0.9570773074        2.2416550434        0.5465528073
CB            2.9347353393        2.5078390831       -0.1580925134
HB            2.9541738683        3.5485261999        0.1671949457
HB            3.3940542156        1.8929889742        0.6173104458
HB            3.5127469870        2.4175882431       -1.0781848993
C             0.7262370385        2.9003990809       -1.4533878182
O             0.3150052649        2.4150356728       -2.5138732839
N             0.5123600976        4.1873490878       -1.1439857159
H             0.8735739824        4.5214743748       -0.2601270808
CH           -0.2051711729        5.1440772179       -1.9883244641
HH            0.2946285529        5.2407017652       -2.9544405572
HH           -0.2321287493        6.1233845285       -1.5064382556
HH           -1.2298604630        4.8042730954       -2.1529568783
    52
 Energy=    -36.4742852091586
HH           -3.7573388065        2.2174120764       -0.1884001860
CH           -2.6794076455        2.0995212832       -0.2918682839
HH           -2.1727367922        2.8567840301        0.3049588993
HH           -2.4008589559        2.2117141986       -1.3389636754
C            -2.2783692255        0.7257547509        0.1963461968
O            -1.7057659924       -0.0542484398       -0.5640237990
N            -2.5844697122        0.4357479968        1.4630877357
H            -3.0621086039        1.1473224375        1.9969323526
CA           -2.2354806987       -0.8093962214        2.1636622297
HA           -2.4152365596       -0.6475807816        3.2278021577
CB           -3.2184865637       -1.9083594565        1.7146667282
HB           -3.1037511280       -2.7947382209        2.3399593076
HB           -3.0407957515       -2.1751787757        0.6717204824
HB           -4.2438544544       -1.5501507702        1.8191012623
C            -0.7307187221       -1.1701728417        2.0418792323
O             0.1266428441       -0.2806393390        2.0108902345
N            -0.3875847517       -2.4631910459        1.9744800389
H            -1.1239743692       -3.1535745475        2.0166259822
CA            0.9966413078       -2.9501998179        1.8906228988
HA            1.5542214464       -2.5421519660        2.7357318490
CB            0.9657595955       -4.4773358640        2.0359046062
HB            0.4165151666       -4.9229127212        1.2047886636
HB            0.4856155310       -4.7523978518        2.9762454905
HB            1.9849769315       -4.8664977907        2.0371351342
C             1.7434200778       -2.5229142942        0.6031359797
O             2.9778010870       -2.5026266424        0.5843761339
N             1.0157020893       -2.1473189768       -0.4570817030
H             0.0097950655       -2.2033540746       -0.3833337394
CA            1.5714375633       -1.6111085795       -1.7054071473
HA            2.5145148361       -2.1196631303       -1.9133511753
CB            0.5981511355       -1.9573616473       -2.8398956031
HB           -0.3553007573       -1.4510247601       -2.6833317744
HB            1.0172608783       -1.6366127396       -3.7944019331
HB            0.4343935255       -3.0353801816       -2.8736682653
C             1.8800879609       -0.0932741499       -1.6547164054
O             2.5353859139        0.4241988523       -2.5658020121
N             1.4413353547        0.6014765620       -0.5936433030
H             0.9367214446        0.0771618543        0.1089931266
CA            1.4824296703        2.0569818665       -0.3924044099
HA            0.9570772582        2.2416548756        0.5465526444
CB            2.9347353304        2.5078387805       -0.1580925720
HB            2.9541739304        3.5485259216        0.1671948061
HB            3.3940540514        1.8929886767        0.6173104872
HB            3.5127470552        2.4175878078       -1.0781848955
C             0.7262371051        2.9003990089       -1.4533879606
O             0.3150056888        2.4150357626       -2.5138736381
N             0.5123598300        4.1873489046       -1.1439856349
H             0.8735734879        4.5214741176       -0.2601268760
CH           -0.2051715378        5.1440769930       -1.9883243458
HH            0.2946285078        5.2407020395       -2.9544402220
HH           -0.2321297169        6.1233841478       -1.5064378585
HH           -1.2298606256        4.8042724856       -2.1529572362
    52
 Energy=    -32.6689065469491
HH           -4.4416723891       -0.0351972641       -0.6311390499
CH           -3.5190056446        0.5316246396       -0.7494591418
HH           -3.6914116399        1.5705136950       -0.4709082548
HH           -3.1914417199        0.4820710379       -1.7873126460
C            -2.4538069009       -0.0562151715        0.1459138548
O            -1.4170793188       -0.4843322946       -0.3514455283
N            -2.7219177761       -0.0527722619        1.4532473369
H            -3.6131277779        0.3485316694        1.7065483721
CA           -1.9248999201       -0.5705522615        2.5800670934
HA           -1.7358549078        0.2755095893        3.2431207729
CB           -2.8009087275       -1.5569241105        3.3695796511
HB           -2.2491323034       -1.9307325285        4.2335762166
HB           -3.0947520174       -2.3974290491        2.7391204359
HB           -3.7001655882       -1.0504508543        3.7233071202
C            -0.5294483549       -1.1620960348        2.2556492031
O             0.4898678019       -0.5088677349        2.4972864371
N            -0.4699000689       -2.3922228378        1.7268863740
H            -1.3418898941       -2.8642917041        1.5353572616
CA            0.7741074914       -3.1442151200        1.5148242901
HA            1.3773493188       -3.0702321440        2.4215732359
CB            0.3999969113       -4.6193666250        1.3198559083
HB           -0.2026775654       -4.7380123189        0.4178652967
HB           -0.1643894372       -4.9775109769        2.1822004495
HB            1.3068794928       -5.2178524207        1.2221589774
C             1.6471543340       -2.6273839203        0.3472178168
O             2.8622408374       -2.8491255317        0.3437054209
N             1.0509865763       -1.9308511412       -0.6271562790
H             0.0519526155       -1.7770093512       -0.5489088859
CA            1.7390075425       -1.3021293889       -1.7613521610
HA            2.7070978635       -1.7834602904       -1.9096021981
CB            0.8981311195       -1.5542179567       -3.0191482760
HB           -0.0785865449       -1.0781273998       -2.9194434850
HB            1.4081816925       -1.1396426936       -3.8896336216
HB            0.7637183350       -2.6266242657       -3.1672152292
C             2.0065814042        0.2058366419       -1.5489884715
O             2.9662858064        0.7424058315       -2.1127253237
N             1.1893138579        0.8659761916       -0.7151755126
H             0.4225553629        0.3308600937       -0.3279505493
CA            1.1977744794        2.3042929188       -0.4113430436
HA            0.3281714203        2.4906039059        0.2215174295
CB            2.4315399132        2.6258990169        0.4521550780
HB            2.3599445386        3.6389839080        0.8488763562
HB            2.4872652661        1.9312628943        1.2917754803
HB            3.3419523101        2.5436528598       -0.1424117795
C             1.0176303088        3.2368200836       -1.6404222387
O             0.8517802995        2.7893994482       -2.7821065990
N             1.0000848099        4.5556307924       -1.3981378130
H             1.1259737873        4.8548360932       -0.4402711405
CH            0.8193343074        5.5935574705       -2.4148622926
HH           -0.1462655613        5.4703320151       -2.9098360640
HH            1.6112076186        5.5272405909       -3.1639443211
HH            0.8542669347        6.5820040667       -1.9524859605
    52
 Energy=    -37.9782296581974
HH           -4.1545705538       -1.8706350152       -0.6197753892
CH           -3.8414275545       -0.8396586529       -0.7798321652
HH           -4.6520122600       -0.1664949066       -0.5034555788
HH           -3.5870104057       -0.6933399245       -1.8289798158
C            -2.6351199271       -0.5441846732        0.0786117162
O            -1.5721874691       -0.2087429457       -0.4408844864
N            -2.7830232110       -0.6940314490        1.3945925443
H            -3.6897769326       -0.9790000810        1.7368581492
CA           -1.7492087374       -0.3663224518        2.3859412984
HA           -1.4666929216        0.6792619622        2.2500394993
CB           -2.3726243374       -0.5123008902        3.7802368331
HB           -1.6459820765       -0.2201369292        4.5397546458
HB           -2.6698877309       -1.5481313593        3.9522395387
HB           -3.2474089894        0.1340184391        3.8661732099
C            -0.4574771153       -1.2075573544        2.2568920494
O             0.6126441531       -0.7653768367        2.6844580004
N            -0.5329927112       -2.3902398712        1.6324778324
H            -1.4454658063       -2.7112247199        1.3410535183
CA            0.6239316929       -3.2392728494        1.3274084149
HA            1.2469927457       -3.3129974289        2.2206601721
CB            0.1025683550       -4.6436887142        0.9965510629
HB           -0.5219810905       -4.6124372566        0.1022058555
HB           -0.4819173688       -5.0298421691        1.8330152541
HB            0.9443467593       -5.3143920047        0.8184004199
C             1.5134833187       -2.6831595264        0.1895700128
O             2.7033890410       -3.0077059933        0.1266338015