    52
Energy=    -37.1738336533510    
HH        -2.852433943         2.489899664         3.167222135    
CH        -3.423930853         1.727045385         3.694484519    
HH        -4.468599747         1.781360661         3.390698303    
HH        -3.347207520         1.890935685         4.768692073    
C         -2.873192160        0.3621961197         3.346801226    
O         -2.427625603       -0.3693512132         4.231513924    
N         -2.904960512        0.1979338484E-01     2.059612699    
H         -3.283868943        0.6865269130         1.403743886    
CA        -2.394836503        -1.248319274         1.529267578    
HA        -2.758569919        -2.056566401         2.167094799    
CB        -2.981255168        -1.460770830        0.1261488446    
HB        -2.668169216        -2.430191982       -0.2643665073    
HB        -2.633871032       -0.6762818153       -0.5485370242    
HB        -4.071234305        -1.439010235        0.1725299396    
C        -0.8514769599        -1.320313304         1.521588961    
O        -0.1609024408       -0.2979954633         1.448117342    
N        -0.3021214291        -2.541040037         1.531450708    
H        -0.9198308516        -3.339988464         1.579144565    
CA         1.144960417        -2.799042876         1.568725930    
HA         1.564656283        -2.266430631         2.424165571    
CB         1.347879292        -4.302162891         1.800217583    
HB        0.9406262600        -4.869922722        0.9619236485    
HB        0.8486375178        -4.607728908         2.720983108    
HB         2.413180681        -4.518951218         1.891881399    
C          1.907790071        -2.314680995        0.3122808698    
O          3.119851331        -2.088183624        0.3718928179    
N          1.206333480        -2.112558899       -0.8107279639    
H         0.2274995884        -2.360252687       -0.8031673360    
CA         1.753629387        -1.544895518        -2.048275400    
HA         2.736932329        -1.984612486        -2.224808279    
CB        0.8354388478        -1.970466302        -3.201869912    
HB       -0.1569773617        -1.535980314        -3.071138151    
HB         1.251553815        -1.625670619        -4.149432369    
HB        0.7540906049        -3.058072454        -3.231108646    
C          1.945491610       -0.7271170234E-02    -2.008714700    
O          2.584995996        0.5473449973        -2.909082309    
N          1.420461993        0.6706103804       -0.9749227406    
H         0.9363999966        0.1296478545       -0.2701226207    
CA         1.392558764         2.130345187       -0.7952141973    
HA        0.7954005087         2.319228579        0.9881102797E-01
CB         2.814928298         2.623667593       -0.4703945881    
HB         2.786846691         3.662473904       -0.1402816188    
HB         3.242588860         2.020057893        0.3315795248    
HB         3.452125577         2.551489469        -1.352331899    
C         0.6866644124         2.918039842        -1.932641266    
O         0.1537637845         2.344361005        -2.890891893    
N         0.6365373029         4.251666826        -1.801584284    
H          1.077777034         4.656160189       -0.9863967354    
CH       -0.1936069332E-02     5.165153764        -2.751105798    
HH        -1.066037654         4.934919352        -2.836216961    
HH        0.1089189493         6.196935409        -2.411726063    
HH        0.4605188066         5.066853079        -3.735513720    
    52
Energy=    -33.4424136108284    
HH        -2.851978619         2.463926043         3.210941618    
CH        -3.426608445         1.697030363         3.728868170    
HH        -4.470499096         1.757311898         3.423509202    
HH        -3.351786480         1.849406467         4.804910632    
C         -2.878700503        0.3344456398         3.368062312    
O         -2.436290217       -0.4070922704         4.245982346    
N         -2.908751304        0.5625835635E-02     2.077202670    
H         -3.280888812        0.6826342328         1.428158748    
CA        -2.398270469        -1.258304782         1.533618112    
HA        -2.739192217        -2.063676656         2.187717380    
CB        -3.015394819        -1.504495253        0.1424529748    
HB        -3.631399077        -2.404309618        0.1739418926    
HB        -2.233890588        -1.644794516       -0.6060137163    
HB        -3.642218436       -0.6668676912       -0.1681241102    
C        -0.8539566627        -1.320568575         1.511549688    
O        -0.1702747777       -0.2939727084         1.434401059    
N        -0.2974416164        -2.538086893         1.517163812    
H        -0.9108998217        -3.340389263         1.564274027    
CA         1.150967426        -2.788157028         1.559926662    
HA         1.563723447        -2.256202710         2.419151032    
CB         1.361091697        -4.290876087         1.787541955    
HB        0.9606478905        -4.858185339        0.9456685071    
HB        0.8594794211        -4.602121571         2.705113229    
HB         2.427154916        -4.502126594         1.883231339    
C          1.917572748        -2.295743838        0.3091270679    
O          3.126550049        -2.055718803        0.3775930742    
N          1.222177473        -2.101848919       -0.8189609475    
H         0.2467779941        -2.362455874       -0.8189153187    
CA         1.772928607        -1.530063198        -2.053127537    
HA         2.759592783        -1.964252135        -2.224547761    
CB        0.8634639527        -1.959764730        -3.212092779    
HB       -0.1319810638        -1.530694503        -3.086670868    
HB         1.283010605        -1.612034116        -4.157070933    
HB        0.7881677022        -3.047775436        -3.242588778    
C          1.956165476        0.8573931126E-02    -2.011646903    
O          2.599759976        0.5668253069        -2.906838171    
N          1.419592147        0.6833518012       -0.9817605538    
H         0.9328639504        0.1396722107       -0.2809160506    
CA         1.383757323         2.142839096       -0.8013166687    
HA        0.7783199890         2.328496045        0.8780080835E-01
CB         2.801221257         2.642042242       -0.4642483708    
HB         2.765917829         3.680481099       -0.1336739571    
HB         3.224738647         2.039701219        0.3408735552    
HB         3.446088298         2.573211043        -1.340864354    
C         0.6840443579         2.928351266        -1.944078612    
O         0.1612812779         2.353094823        -2.906961545    
N         0.6275234513         4.261699736        -1.812754395    
H          1.060454199         4.667492938       -0.9937674579    
CH       -0.6759861989E-02     5.173167257        -2.767015086    
HH        -1.069205366         4.938763341        -2.860975331    
HH        0.9721054766E-01     6.205194716        -2.426206585    
HH        0.4641431164         5.077240358        -3.747645086    
    52
Energy=    -37.1738336533500    
HH        -2.873124944         2.455796763         3.175137460    
CH        -3.437225520         1.686428986         3.700898574    
HH        -4.482551855         1.731866410         3.397917379    
HH        -3.361299654         1.848395992         4.775454448    
C         -2.874179199        0.3275602678         3.349522770    
O         -2.421310075       -0.4020116840         4.232156293    
N         -2.903650536       -0.1197739071E-01     2.061520910    
H         -3.289115678        0.6528387029         1.407529102    
CA        -2.382228905        -1.274041887         1.527746729    
HA        -2.738083220        -2.087157680         2.163828008    
CB        -2.967600476        -1.488457576        0.1244895456    
HB        -4.057702637        -1.476845444        0.1716242871    
HB        -2.645864752        -2.453999343       -0.2685977771    
HB        -2.627900643       -0.6991593643       -0.5484979205    
C        -0.8382775256        -1.331805913         1.518900165    
O        -0.1571909916       -0.3029977541         1.447486430    
N        -0.2777028882        -2.547444041         1.525422103    
H        -0.8880005504        -3.352159198         1.571557811    
CA         1.171716842        -2.792204509         1.561136834    
HA         1.587060948        -2.257840751         2.417607527    
CB         1.388616048        -4.293953335         1.788819597    
HB        0.9860491293        -4.863390428        0.9494005984    
HB        0.8928199056        -4.606348868         2.709155028    
HB         2.455928367        -4.501148534         1.879268744    
C          1.929220990        -2.297775315        0.3053912610    
O          3.139185534        -2.060275783        0.3647791463    
N          1.225187739        -2.099378724       -0.8166691218    
H         0.2486803447        -2.356090560       -0.8090862287    
CA         1.766413319        -1.523682296        -2.053174962    
HA         2.753604445        -1.953896226        -2.231414108    
CB        0.8514127916        -1.954871112        -3.207217814    
HB       -0.1448735801        -1.529860279        -3.074786502    
HB         1.263706934        -1.603947471        -4.154200647    
HB        0.7800595511        -3.043105475        -3.239065380    
C          1.944140895        0.1554202097E-01    -2.009975468    
O          2.577915144        0.5782177267        -2.909393633    
N          1.413580969        0.6860363314       -0.9741913009    
H         0.9349869474        0.1389219582       -0.2704063174    
CA         1.372362686         2.145009449       -0.7908938798    
HA        0.7740852179         2.326204949        0.1039738594    
CB         2.790346826         2.650610628       -0.4657811438    
HB         2.752924376         3.688305553       -0.1331093842    
HB         3.224077696         2.049007719        0.3344389404    
HB         3.427595390         2.586454358        -1.348301236    
C         0.6584928010         2.928946229        -1.925937031    
O         0.1302583845         2.352726450        -2.885246117    
N         0.5961802035         4.261731429        -1.791585418    
H          1.034219720         4.668278764       -0.9756940283    
CH       -0.5130443423E-01     5.171616851        -2.738459172    
HH        -1.113298328         4.931805416        -2.823449855    
HH        0.5027546800E-01     6.203543957        -2.396627669    
HH        0.4113810773         5.079979827        -3.723401437    
