          38
Energy of minimum      1=    -173.9284262     first found at step      108 after                14890 function calls
SI         0.6299851998        0.3044874184       -1.6035162520
SI         1.1252384555       -0.8376752902        1.0454755576
SI        -0.0258273467       -1.6955955872        0.4303470738
SI         1.1783957802       -0.9591345465       -0.8673414572
SI        -1.6048179648       -0.6967336611       -0.0003749866
SI        -0.0987361306        1.1034007222       -1.3541286680
SI         1.4280194730        0.2282084762        0.9846521618
SI        -1.4796993828       -0.1016457922        0.9279107049
SI        -0.3286648600        0.7562811073        1.5429992836
SI         0.8796320967        1.4917617806        0.2485168796
SI         0.0257685132        1.6955885585       -0.4303467947
SI        -0.8796352186       -1.4917579073       -0.2485807413
SI         0.7028350409        1.0232580431        1.2327986075
SI        -0.7027918382       -1.0232259477       -1.2328501015
SI        -1.0007304721        1.4298791363       -0.1216593597
SI        -1.1252315384        0.8376897138       -1.0454425466
SI        -1.1783855809        0.9590780744        0.8674130279
SI         1.0006909095       -1.4299156331        0.1217334261
SI        -1.4280068641       -0.2282068999       -0.9846538177
SI         1.6048131701        0.6967000362        0.0003595574
SI        -0.6299807560       -0.3044435411        1.6034997522
SI         0.0987300364       -1.1033675736        1.3541123556
SI         0.3287279777       -0.7562466173       -1.5429773471
SI         1.4796730002        0.1015969411       -0.9279077496
SI        -0.1493186593        1.2210290032        0.5543720709
SI         0.1493209182       -1.2210305856       -0.5543688693
SI         0.7504855901        0.8952977342       -0.6751064029
SI         1.2975472507       -0.3652210476        0.0592511328
SI        -0.3977353806        0.0394908142       -1.2887118611
SI         0.3977475045       -0.0394599505        1.2886930693
SI        -1.2975550606        0.3651936416       -0.0592293874
SI        -0.7504908377       -0.8952893529        0.6750807656
SI        -0.4481267163        0.1622264302        0.6123069451
SI         0.2724467715       -0.6277636046        0.3657193526
SI         0.5718516939        0.4262235761        0.3055893368
SI         0.4481315943       -0.1622255764       -0.6123116069
SI        -0.5718512290       -0.4262224546       -0.3056029890
SI        -0.2724551395        0.6277703619       -0.3657201223
          38
Energy of minimum      2=    -173.2523776     first found at step      878 after               127635 function calls
SI        -0.5027956373       -1.2281393823        1.4315997593
SI        -0.8916623154        1.4072261067       -1.0174636334
SI         0.6801168655       -1.7895343077       -0.3814894880
SI         0.4397722278       -0.1608456154       -1.8950813726
SI        -1.4741198704        0.7476182013        1.0385460495
SI        -1.2663914484       -0.7413268716       -0.5966442651
SI         1.2083401729       -1.3946629875        0.5197452912
SI        -0.6930076088        1.5360145755        0.9141679154
SI         0.2103672880        1.5825818491       -1.0613841155
SI         0.6076176561       -1.1095571954        1.4405036772
SI         1.5076167006       -1.0557215576       -0.5363817849
SI        -0.5695381528        0.6993348181        1.6916856206
SI        -0.0762758420       -0.3040458197        1.8913083949
SI         0.8865040809        0.7862750411       -1.5070555554
SI        -0.3971863415        1.8709745171       -0.1299839453
SI         1.3855632205       -0.2285614627       -1.3050575397
SI         1.4219064588       -0.0000457934       -0.2258396343
SI         0.3084044503        1.3112825135        0.5080907157
SI         0.4326542798        0.4694075057        1.2904524615
SI         1.1207714862       -0.3410881755        0.8368433707
SI         0.9197617792        1.0211088129       -0.4290925912
SI         0.5665210880       -0.9767220579       -1.1409773782
SI        -0.9883089296       -0.2387706083        1.2421811440
SI        -1.1835247849        1.0843524764        0.0125815641
SI         0.0932508719       -1.5126129098        0.5292265067
SI        -0.2226636393        0.6282423498       -1.4603226306
SI        -1.0771170626        0.3341717533       -0.8061998357
SI        -0.8826708014       -0.9836588065        0.4184855919
SI        -0.4113326599       -0.4499631285       -1.2450653158
SI        -0.2911496479       -1.2644174832       -0.4881696486
SI        -1.3684079451        0.0043338862        0.2219353948
SI         0.5049324588        0.2955752202        0.2378957613
SI         0.5791755865       -0.7305328143       -0.0702801446
SI         0.4616647129        0.0657720160       -0.8103124467
SI        -0.4740432929        0.5099072540        0.6239686482
SI        -0.1892586688        0.8323965866       -0.3812538998
SI         0.0008546663       -0.4560572413        0.8161481163
SI        -0.3763414022       -0.2203112650       -0.1773107578
