          52
Energy of minimum      1=    -12.94781157     first found at step      433 after               236854 function calls
HH31       -2.0883960362       -2.2496792521       -4.4256339196
CH3        -1.4496031574       -1.4312332468       -4.1000450792
HH32       -1.3967188517       -0.6729511375       -4.8795638632
HH33       -0.4527425098       -1.8146972405       -3.8894137482
C          -2.0390867382       -0.8185322718       -2.8518974924
O          -2.6609616045        0.2359902478       -2.9132892205
N          -1.8328426608       -1.4617431432       -1.7065710916
H          -1.1910497405       -2.2448331448       -1.7157522446
CA         -2.4352191447       -1.0838655524       -0.4262673474
HA         -3.4416386454       -0.7130466507       -0.6287719728
CB         -2.5927548009       -2.3487582717        0.4291882312
HB1        -1.6182222893       -2.7905948234        0.6288169929
HB2        -3.2135417085       -3.0756566864       -0.0959053558
HB3        -3.0708763449       -2.0956578234        1.3763084089
C          -1.6847906530        0.0735220383        0.2720869061
O          -1.1806519201       -0.0768729671        1.3853964997
N          -1.6039467342        1.2286699896       -0.3984244690
H          -2.0217144990        1.2307042808       -1.3240402928
CA         -0.9861098916        2.4835310913        0.0545207916
HA         -0.9005036349        3.1175871222       -0.8293473607
CB         -1.9401757774        3.2159796934        1.0115478733
HB1        -1.5077909934        4.1753572331        1.2988003748
HB2        -2.1164256509        2.6174674286        1.9062541373
HB3        -2.8936856224        3.3956151646        0.5130960157
C           0.4606144743        2.3417634097        0.5771286151
O           1.4033060155        2.4866050558       -0.1965042380
N           0.6508926048        2.0244867420        1.8630222917
H          -0.1674071325        1.8376496360        2.4226897561
CA          1.9639646540        1.7016311594        2.4329814993
HA          2.6526717135        2.5203418846        2.2161868683
CB          1.8088135123        1.5846886912        3.9539191150
HB1         1.1244687794        0.7715881466        4.2008721318
HB2         2.7818783527        1.3782411197        4.4022989425
HB3         1.4249228721        2.5205147407        4.3618157898
C           2.5736580851        0.4193774368        1.8248251629
O           3.7913573052        0.2956852055        1.7392003440
N           1.7275697717       -0.4974186561        1.3432110315
H           0.7370934179       -0.3355284312        1.4862546674
CA          2.0945622296       -1.6225866505        0.4819927542
HA          3.1826429016       -1.6753015514        0.4175961087
CB          1.6192808727       -2.9251683441        1.1393359439
HB1         1.9008471434       -3.7756964537        0.5172976449
HB2         2.0871502073       -3.0339570979        2.1184673145
HB3         0.5379731497       -2.9108117250        1.2600815545
C           1.5935538067       -1.3987012567       -0.9642595233
O           0.9953961810       -2.2828231905       -1.5804422571
N           1.7830881621       -0.1771572705       -1.4825726707
H           2.2147887062        0.5207239186       -0.8873323107
CH3         1.4122096118        0.2483829147       -2.8291171168
HH31        0.3722085344        0.5748547847       -2.8414198721
HH32        2.0435082517        1.0849048625       -3.1333965876
HH33        1.5484354256       -0.5725911586       -3.5352257337
          52
Energy of minimum      2=    -10.23035521     first found at step      794 after               409903 function calls
HH31       -3.7945780820        2.1545401999       -2.5411400117
CH3        -3.2050066947        1.2416495085       -2.4697641227
HH32       -3.5940679845        0.4961710033       -3.1602138452
HH33       -2.1643881088        1.4562006678       -2.7087926564
C          -3.2912264114        0.7068125213       -1.0608901104
O          -3.9918493319        1.2644968882       -0.2237439555
N          -2.5509665721       -0.3610052362       -0.7794299410
H          -1.9117951294       -0.6976498814       -1.4916302684
CA         -2.4550245851       -0.9741605450        0.5445584504
HA         -3.4388127793       -0.9357856288        1.0157525341
CB         -2.0852679709       -2.4545392110        0.3722863719
HB1        -2.8463324468       -2.9586917128       -0.2242006315
HB2        -2.0256910272       -2.9338822481        1.3501121135
HB3        -1.1211579339       -2.5440146444       -0.1275202036
C          -1.4894763421       -0.1788496093        1.4485677922
O          -0.4148677510       -0.6627699787        1.8080330514
N          -1.8728318785        1.0651131393        1.7647772825
H          -2.7570396826        1.3562720059        1.3588308733
CA         -1.1402554995        2.1024162516        2.5103242177
HA         -1.7566828090        3.0017495000        2.4652432038
CB         -1.0603449887        1.7134856346        3.9939178473
HB1        -2.0618269171        1.5245772715        4.3822244488
HB2        -0.4516259953        0.8172176029        4.1192956212
HB3        -0.6103705493        2.5299816392        4.5602299655
C           0.2229671034        2.5243699917        1.9175494375
O           0.4178431209        3.6984419694        1.6192157845
N           1.1453759009        1.5802859467        1.7257547248
H           0.8939594413        0.6427723102        2.0152752247
CA          2.4602892922        1.7773631002        1.1089269736
HA          2.4771947222        2.7483466469        0.6106812651
CB          3.5092748108        1.8025275625        2.2289599591
HB1         3.2677292792        2.5904043545        2.9437116373
HB2         3.5326108268        0.8405807357        2.7423453481
HB3         4.4936150226        2.0044562473        1.8042452865
C           2.7972858743        0.7269632594        0.0252805334
O           3.8549101598        0.8093818023       -0.5950352082
N           1.9195922506       -0.2564092710       -0.2148962452
H           1.0596371212       -0.2751218294        0.3162235674
CA          2.1165088806       -1.3237848487       -1.1987420761
HA          3.0806820044       -1.1824908628       -1.6895745941
CB          2.1772479582       -2.6640308322       -0.4549095645
HB1         2.9956936129       -2.6466277639        0.2662379634
HB2         1.2406744034       -2.8404880752        0.0750034724
HB3         2.3476046517       -3.4757919051       -1.1625323196
C           1.0448800915       -1.3137493851       -2.3071454069
O          -0.0910199252       -0.8876342678       -2.0937936942
N           1.4024446420       -1.8174904877       -3.4948998553
H           2.3499823132       -2.1464833166       -3.5998266462
CH3         0.5152446298       -1.8977452175       -4.6540814796
HH31        0.1677070996       -0.8978641310       -4.9222152556
HH32       -0.3514962449       -2.5168396407       -4.4144193073
HH33        1.0430484279       -2.3326772302       -5.5041675523
          52
Energy of minimum      3=    -9.795918823     first found at step      547 after               290528 function calls
HH31       -0.5683554953        3.6816937938       -1.5448969581
CH3        -0.3072396672        3.1828745356       -0.6136999567
HH32       -0.1976429652        3.9201983283        0.1797416761
HH33        0.6284063155        2.6416970782       -0.7460249736
C          -1.4023437885        2.2103983904       -0.2466938874
O          -1.9667191777        2.2981828643        0.8406854577
N          -1.6874471588        1.2580450575       -1.1298451681
H          -1.0623078810        1.1498245103       -1.9215456508
CA         -2.6785180512        0.2081407659       -0.8979374458
HA         -3.6064111573        0.6654446411       -0.5517059357
CB         -2.9591518460       -0.4997023198       -2.2300593325
HB1        -3.6939653640       -1.2907767261       -2.0775669619
HB2        -3.3493340230        0.2150771929       -2.9553422437
HB3        -2.0392589869       -0.9405328563       -2.6192888430
C          -2.1663108680       -0.7506069027        0.1909284355
O          -1.2754426425       -1.5565942770       -0.0610906301
N          -2.6645940239       -0.6020285343        1.4250065505
H          -3.3670705682        0.1086171539        1.5586010431
CA         -2.0141003102       -1.1470661534        2.6264385994
HA         -2.4753936277       -0.6590850191        3.4851676610
CB         -2.3174331603       -2.6487092309        2.7578816278
HB1        -1.8436607939       -3.2003435755        1.9446916850
HB2        -3.3940715204       -2.8172039309        2.7296515171
HB3        -1.9237294394       -3.0190564890        3.7051773194
C          -0.5112101177       -0.7726581323        2.6955848176
O           0.3438151982       -1.6050482171        2.9831251113
N          -0.2036751316        0.4909801421        2.3719525492
H          -0.9771055598        1.0978663313        2.1269311449
CA          1.1355119925        1.0589185459        2.1683777412
HA          0.9694252666        2.1007851287        1.8944294468
CB          1.9006587669        1.1007018812        3.5005828552
HB1         2.1642690159        0.0901328640        3.8145347709
HB2         2.8177671079        1.6779590733        3.3770445589
HB3         1.2876310580        1.5706804915        4.2699585436
C           1.9631685201        0.4871454056        0.9907111679
O           3.0403242385        1.0119492831        0.7110138952
N           1.4725058957       -0.5090508161        0.2442573289
H           0.5819816587       -0.9246409360        0.4888064288
CA          2.1354203602       -1.0017465754       -0.9638464102
HA          3.2103194353       -1.0041047487       -0.7760564216
CB          1.7183233170       -2.4555378016       -1.2177179252
HB1         0.6618451903       -2.5002942703       -1.4831399709
HB2         1.8884411494       -3.0523969120       -0.3204300591
HB3         2.3047453686       -2.8703840838       -2.0375317357
C           1.8802216276       -0.0974248669       -2.1889979258
O           0.8082855811        0.4934090244       -2.3433043554
N           2.8689133623       -0.0157972956       -3.0881373155
H           3.7213040667       -0.5169374323       -2.8924179784
CH3         2.8031768431        0.7809460041       -4.3116804842
HH31        2.6771923840        1.8350937373       -4.0568460298
HH32        3.7189131076        0.6586071486       -4.8916859961
HH33        1.9499264982        0.4623587295       -4.9137913380
          52
Energy of minimum      4=    -8.620365805     first found at step      831 after               427589 function calls
HH31       -1.9100380214       -3.3702722364       -1.6789960091
CH3        -1.3297813978       -2.4601957825       -1.8127018632
HH32       -0.3996632358       -2.5344247820       -1.2520965205
HH33       -1.1003037704       -2.3233854584       -2.8683929421
C          -2.1274593638       -1.2798123551       -1.3137583987
O          -2.5430800615       -0.4312356121       -2.0957101683
N          -2.3369725832       -1.2107161734       -0.0017826916
H          -1.8634699515       -1.8855043037        0.5788295766
CA         -3.1332149952       -0.1764668545        0.6669055086
HA         -3.9935374034        0.0519952858        0.0355112168
CB         -3.6673452224       -0.7591751998        1.9839760645
HB1        -4.3085882006       -0.0260493487        2.4751035104
HB2        -2.8366297444       -1.0039298395        2.6477318831
HB3        -4.2495108620       -1.6594125764        1.7839572199
C          -2.3451741407        1.1421146385        0.8390069348
O          -2.1501823733        1.6201470455        1.9566081038
N          -1.8362581640        1.6881995329       -0.2732141511
H          -2.0775108030        1.2063302722       -1.1337938888
CA         -0.7681330990        2.6965433066       -0.3764993719
HA         -0.5755742251        2.8287905446       -1.4420604813
CB         -1.2541564856        4.0577448279        0.1427835875
HB1        -1.4294870302        4.0164315409        1.2181957344
HB2        -2.1801212091        4.3371430430       -0.3610674157
HB3        -0.4973316302        4.8159047069       -0.0613939686
C           0.5782983435        2.2408899163        0.2271356955
O           1.5981056687        2.2581457270       -0.4631782715
N           0.5858814819        1.7208516235        1.4565442753
H          -0.2924957313        1.7196327379        1.9642116763
CA          1.6376823401        0.8250756460        1.9239190843
HA          2.5926961048        1.3504577910        1.8783805743
CB          1.3556345249        0.4468094656        3.3826437362
HB1         1.3334381357        1.3451698438        4.0008779987
HB2         0.3927631968       -0.0623811645        3.4556610972
HB3         2.1382826815       -0.2183732975        3.7486724888
C           1.6967542970       -0.4088104801        1.0009106010
O           0.6838113491       -1.0751894647        0.7863554673
N           2.8743156197       -0.6707969891        0.4221327920
H           3.6484957062       -0.0702792744        0.6543261600
CA          3.0829736643       -1.6359792025       -0.6675528257
HA          4.1053158335       -1.4831012094       -1.0134436341
CB          3.0319400528       -3.0684113463       -0.1099217302
HB1         3.7031101131       -3.1631464590        0.7439340558
HB2         2.0153052191       -3.3137713888        0.1992834226
HB3         3.3416018800       -3.7738327006       -0.8821880464
C           2.2101716595       -1.4070274422       -1.9312707782
O           2.0105428342       -2.3322323898       -2.7158299939
N           1.7078521923       -0.1811351251       -2.1473664029
H           1.8999732121        0.5412292058       -1.4634002468
CH3         0.8999263203        0.1970893935       -3.3054969840
HH31        0.9660290913        1.2736766215       -3.4675247917
HH32        1.2575569550       -0.3208260957       -4.1978750369
HH33       -0.1424387723       -0.0744981646       -3.1370818527
          52
Energy of minimum      5=    -8.096825686     first found at step      353 after               192699 function calls
HH31        0.3158050742        4.8441890784       -1.5716970823
CH3         0.3908235252        4.1139356242       -0.7685845129
HH32        0.4153382932        4.6270907273        0.1916149672
HH33        1.3015609159        3.5267963273       -0.8855767853
C          -0.8034935295        3.1922573884       -0.8078915402
O          -1.5345401587        3.0813217157        0.1724520690
N          -1.0017552194        2.5073984349       -1.9329585142
H          -0.3345861313        2.6068786675       -2.6805564952
CA         -2.0596903742        1.5069189971       -2.0770234824
HA         -3.0166563416        1.9758609830       -1.8431703983
CB         -2.1011508923        1.0328132714       -3.5352950786
HB1        -2.8973955148        0.2978765032       -3.6589883984
HB2        -1.1498885851        0.5709487227       -3.8059434796
HB3        -2.2936151369        1.8784277247       -4.1967195367
C          -1.8254944255        0.3485517582       -1.0891835990
O          -0.8174215566       -0.3490003623       -1.1815051943
N          -2.7246602129        0.1858912209       -0.1092754946
H          -3.5133460955        0.8123934379       -0.0895536416
CA         -2.5192817646       -0.6812381197        1.0615319128
HA         -3.2671571358       -0.3956145191        1.8015749003
CB         -2.8105016241       -2.1411809766        0.6771865995
HB1        -2.0639802871       -2.4966141685       -0.0339781204
HB2        -2.7719579457       -2.7697203878        1.5679211490
HB3        -3.8020194032       -2.2209769239        0.2309510937
C          -1.1492533130       -0.4582643835        1.7542474891
O          -0.5162581174       -1.4061991981        2.2151068798
N          -0.6783226200        0.7970084984        1.7746858545
H          -1.2742470910        1.5083042566        1.3673588064
CA          0.6892710353        1.2457260732        2.0672776072
HA          0.6940420256        2.3237364674        1.9000977320
CB          1.0100194678        1.0488420016        3.5563934499
HB1         1.9755039432        1.5030171524        3.7823927768
HB2         1.0560281589       -0.0132472305        3.7994254329
HB3         0.2428743334        1.5250205677        4.1677468708
C           1.7788194516        0.6906679702        1.1228558159
O           2.5178246320        1.4777575500        0.5355097110
N           1.8708083311       -0.6315008225        0.9584889662
H           1.2050750173       -1.2041285764        1.4665935987
CA          2.9071642950       -1.3201995970        0.1805706828
HA          3.3198871561       -0.6175005237       -0.5446147188
CB          4.0364209807       -1.7192888709        1.1435996759
HB1         4.4047753001       -0.8378480515        1.6697595129
HB2         4.8607909373       -2.1609298951        0.5822217218
HB3         3.6680942943       -2.4475403182        1.8672162860
C           2.3705076790       -2.5160753631       -0.6437767161
O           3.1168645550       -3.4431138061       -0.9550244131
N           1.0751999507       -2.5175973488       -0.9852722406
H           0.5219561933       -1.6978700644       -0.7572615283
CH3         0.4175581850       -3.5914831854       -1.7252889071
HH31       -0.5769422324       -3.2705870762       -2.0373406163
HH32        1.0076727553       -3.8467453347       -2.6075864640
HH33        0.3329292221       -4.4751660160       -1.0907146039
          52
Energy of minimum      6=    -7.994599305     first found at step      721 after               372493 function calls
HH31        0.0868123021       -2.2446649114       -2.7028713814
CH3        -0.7932213870       -2.6709296664       -2.2197247069
HH32       -0.6748852651       -3.7507049809       -2.1524477729
HH33       -1.6766174870       -2.4277448457       -2.8062513765
C          -0.9241167491       -2.0910253585       -0.8322568900
O          -0.1030652717       -1.2798290152       -0.4272999561
N          -1.9731498998       -2.4907406398       -0.1086750311
H          -2.5833665417       -3.1763330816       -0.5230597774
CA         -2.2270376616       -2.1165997625        1.2947356638
HA         -3.2695272050       -2.3606408976        1.5003655150
CB         -1.3756501922       -3.0172492750        2.2043691124
HB1        -0.3175503450       -2.7875741585        2.0680019513
HB2        -1.5508820564       -4.0667152893        1.9658923369
HB3        -1.6413257389       -2.8451971272        3.2484077611
C          -2.0942580616       -0.6029810668        1.6121892094
O          -1.7084564948       -0.2286460718        2.7175211536
N          -2.3851030510        0.2598012376        0.6287524814
H          -2.6821190374       -0.1558695077       -0.2379122520
CA         -2.0688040240        1.6953360801        0.5660547664
HA         -2.3859805494        2.0332475802       -0.4213839755
CB         -2.9281239240        2.4732419595        1.5736904132
HB1        -2.6402462825        2.2207232020        2.5948542369
HB2        -2.7829433937        3.5439053898        1.4238124042
HB3        -3.9822170260        2.2354593064        1.4276775446
C          -0.5654021036        2.0515045867        0.6424158648
O          -0.0886851007        2.8025388725       -0.2052064411
N           0.1946779184        1.4962323872        1.5911295835
H          -0.2632508388        0.8728712677        2.2469030299
CA          1.6152124317        1.7976076292        1.8108303981
HA          1.7185963155        2.8740983331        1.9564505897
CB          2.0434395878        1.0944664736        3.1046951718
HB1         3.0831241344        1.3406956289        3.3255752920
HB2         1.4181076242        1.4269733656        3.9342334086
HB3         1.9499779407        0.0133176351        2.9913610590
C           2.5437535279        1.4179714861        0.6348198839
O           3.6300982486        1.9767160756        0.5104158499
N           2.1096643367        0.5040487262       -0.2369292053
H           1.2270670056        0.0457364268       -0.0418493810
CA          2.7557576532        0.1414659832       -1.4997794205
HA          3.5922327971        0.8200695522       -1.6731533415
CB          3.3261759302       -1.2781137416       -1.3654874700
HB1         2.5158119108       -1.9921539731       -1.2156643296
HB2         4.0103282693       -1.3219676783       -0.5173826151
HB3         3.8715060567       -1.5420393699       -2.2723388269
C           1.7998552638        0.3194945515       -2.7044613352
O           1.9032537009       -0.3924718593       -3.7032147859
N           0.8351361378        1.2463368842       -2.6024020099
H           0.8030954591        1.8020218168       -1.7537625995
CH3        -0.1525176595        1.5307234229       -3.6393943660
HH31        0.3571553179        1.8340387353       -4.5559417395
HH32       -0.8126437257        2.3350867846       -3.3118178578
HH33       -0.7396927972        0.6344608975       -3.8444858372
          52
Energy of minimum      7=    -7.859076307     first found at step      478 after               257385 function calls
HH31       -5.6034165252        1.2645537896       -3.5456286166
CH3        -4.7964043363        1.9350887682       -3.2557367659
HH32       -5.2128364128        2.9017319934       -2.9738723363
HH33       -4.1051250172        2.0652821509       -4.0863807186
C          -4.0610726044        1.3533477605       -2.0724548076
O          -3.9967878554        1.9724215195       -1.0182713253
N          -3.4759836653        0.1701392540       -2.2495886937
H          -3.5584709295       -0.2631447131       -3.1548691242
CA         -2.7910968042       -0.5945691719       -1.1992432112
HA         -3.4009700959       -0.5275903145       -0.2965821764
CB         -2.7665720119       -2.0713795914       -1.6224488332
HB1        -3.7791354749       -2.4184328066       -1.8320664369
HB2        -2.3500618704       -2.6780403902       -0.8167821425
HB3        -2.1471378845       -2.1954774725       -2.5120173359
C          -1.3957574129       -0.0376345483       -0.8157741484
O          -0.4400477591       -0.7914656246       -0.6423428565
N          -1.2614072185        1.2857002626       -0.6764173559
H          -2.0984285183        1.8500020098       -0.7799770778
CA          0.0154901000        1.9841163519       -0.4815936228
HA          0.6554868726        1.7715283774       -1.3397622080
CB         -0.2736788087        3.4899425108       -0.4622423361
HB1         0.6644132053        4.0397730022       -0.3705003310
HB2        -0.7659903900        3.7876585322       -1.3889923295
HB3        -0.9154942193        3.7390591559        0.3842075249
C           0.8006955330        1.5489651591        0.7752790623
O           2.0200263183        1.6900836986        0.8131530466
N           0.1314387125        0.9580897316        1.7720497885
H          -0.8659125740        0.8637345580        1.6789198851
CA          0.7700289737        0.3672664852        2.9517025352
HA          1.3896266493        1.1304943272        3.4261413480
CB         -0.3368787913       -0.0331666574        3.9350936421
HB1        -0.9704030186       -0.8039909602        3.4941470813
HB2        -0.9425339354        0.8370503722        4.1909327312
HB3         0.1145413429       -0.4263253198        4.8475550276
C           1.7020521040       -0.8262879544        2.6340238869
O           2.5149539123       -1.1951719030        3.4758547425
N           1.6162510292       -1.4103124977        1.4316439076
H           0.9087030302       -1.0869035262        0.7830091054
CA          2.5402237773       -2.4389696059        0.9451401207
HA          2.8755057373       -3.0343065169        1.7960889795
CB          1.7613523167       -3.3689317480        0.0048233981
HB1         2.4027416538       -4.1950185200       -0.3052716893
HB2         0.8889387448       -3.7731297113        0.5190703585
HB3         1.4392469970       -2.8192498861       -0.8804665654
C           3.8184572484       -1.8708573144        0.2811867129
O           4.6568379639       -2.6427160032       -0.1814665140
N           3.9734003367       -0.5398206379        0.2090716935
H           3.2499098240        0.0485573702        0.6050989630
CH3         5.1300295046        0.1238540835       -0.3859986670
HH31        5.2424778952       -0.1921065497       -1.4245410059
HH32        4.9966706962        1.2059374395       -0.3473490220
HH33        6.0321036550       -0.1493787189        0.1644447123
          52
Energy of minimum      8=    -7.212424731     first found at step      262 after               137528 function calls
HH31       -1.5233246339        6.0927563001       -0.9563040757
CH3        -2.4040458660        5.4875717924       -1.1619618589
HH32       -3.1029478205        5.5515815323       -0.3303236157
HH33       -2.8859451117        5.8414788666       -2.0724443990
C          -1.9875089300        4.0485393542       -1.3568461449
O          -2.2119022490        3.4823920113       -2.4188231601
N          -1.3812633358        3.4608766225       -0.3277715511
H          -1.2384408224        3.9901351412        0.5181998118
CA         -0.9147644125        2.0754435154       -0.3302211571
HA         -1.5223627549        1.4879935247       -1.0218199369
CB          0.5403304321        2.0538682686       -0.8205454323
HB1         1.1680599089        2.6522060769       -0.1587695818
HB2         0.5959862087        2.4587900706       -1.8317569880
HB3         0.9146122741        1.0315886715       -0.8304137228
C          -1.0341654130        1.4477352070        1.0682999789
O          -0.6647221825        2.0661169445        2.0670580483
N          -1.4668129142        0.1884668380        1.1421528113
H          -1.6415534761       -0.2960448287        0.2670155746
CA         -1.4202154736       -0.6382011063        2.3512773463
HA         -1.5796776935       -0.0041794656        3.2250615451
CB         -2.5691537714       -1.6548172060        2.2889026066
HB1        -2.4469406446       -2.3029007374        1.4193043529
HB2        -3.5238463105       -1.1324911613        2.2185462876
HB3        -2.5654295004       -2.2677451004        3.1910846573
C          -0.0205129300       -1.2740178800        2.4887092640
O           0.1287341975       -2.4950537613        2.4768432787
N           1.0141963266       -0.4230962183        2.4802399622
H           0.7647694243        0.5571284829        2.5398697696
CA          2.3846095715       -0.7052835093        2.0222906753
HA          2.9201635586        0.2446211950        2.0543079048
CB          3.1086824618       -1.6362521971        3.0064331569
HB1         3.0475688775       -1.2285786972        4.0160069327
HB2         4.1579573411       -1.7197391327        2.7210882924
HB3         2.6617879077       -2.6306671550        2.9930871495
C           2.4662412661       -1.1674474937        0.5481325596
O           3.2044511486       -0.5740807799       -0.2341217308
N           1.6618026814       -2.1507838155        0.1371521496
H           1.0719302213       -2.5903428097        0.8353698972
CA          1.3989444045       -2.4653806207       -1.2659378580
HA          2.3156877558       -2.3068781864       -1.8364045818
CB          1.0262426526       -3.9483800316       -1.3762492121
HB1         1.8346891194       -4.5638042703       -0.9793107239
HB2         0.8602062083       -4.2109048416       -2.4214764802
HB3         0.1139467796       -4.1445817361       -0.8100715284
C           0.3051206101       -1.5472073044       -1.8519188307
O          -0.6780210648       -1.2297252462       -1.1791544632
N           0.4637584840       -1.1324170554       -3.1145168004
H           1.2984710727       -1.4163096653       -3.6034202159
CH3        -0.4784327350       -0.2586958064       -3.8146145809
HH31       -0.5244394518        0.7146131621       -3.3213160289
HH32       -0.1658883279       -0.1168934072       -4.8500718942
HH33       -1.4766330687       -0.7010023508       -3.7998474594
          52
Energy of minimum      9=    -6.681398334     first found at step      533 after               283035 function calls
HH31       -4.9431681007       -3.4126083762       -1.3828751773
CH3        -4.9711785192       -2.3531764661       -1.1342142674
HH32       -5.4630893514       -1.8072822190       -1.9388439649
HH33       -5.5174463799       -2.2021555826       -0.2051755782
C          -3.5601667664       -1.8368556281       -0.9829125406
O          -3.1608946680       -0.9384380525       -1.7098321173
N          -2.8243722848       -2.4043022948       -0.0253624367
H          -3.2752147471       -3.1353188777        0.4995303531
CA         -1.4100537156       -2.1503258563        0.3098651709
HA         -1.2080617046       -2.7315788317        1.2103113717
CB         -0.5292975893       -2.7635525008       -0.7865682693
HB1        -0.6629249909       -2.2253015605       -1.7248662147
HB2         0.5182995624       -2.7068618640       -0.4924223033
HB3        -0.7910598805       -3.8111662579       -0.9375527713
C          -0.9902063796       -0.7043849607        0.6872276842
O           0.0073434190       -0.5422610644        1.3888382517
N          -1.7453689505        0.3305995758        0.3045309956
H          -2.4758169733        0.1218304640       -0.3661395623
CA         -1.5647662380        1.7421809808        0.6657702729
HA         -2.1694249703        2.3182977168       -0.0363769306
CB         -2.1632609529        2.0009738585        2.0585420696
HB1        -1.6406420007        1.4113598281        2.8129876244
HB2        -3.2178383474        1.7225880249        2.0614719247
HB3        -2.0799958033        3.0605001361        2.3044333602
C          -0.1265376476        2.2671103712        0.4652857088
O           0.2408187066        2.6207983539       -0.6514208752
N           0.7015057434        2.2885137077        1.5163600314