          52
Energy of minimum      1=    -12.61763513     first found at step      819 after               433371 function calls
HH31       -2.9610540189        0.6289534268       -1.8906045195
CH3        -1.8798905163        0.6128277972       -2.0192324548
HH32       -1.6203858924        1.0703821820       -2.9724774204
HH33       -1.5262861644       -0.4154320730       -1.9968373666
C          -1.2387572308        1.3814633912       -0.8895066961
O          -1.8375923238        1.5011929151        0.1733036022
N          -0.0252064775        1.8861925442       -1.1123919199
H           0.4117128932        1.6472716775       -1.9963823985
CA          0.8049218580        2.6215133415       -0.1490766455
HA          1.7963739447        2.7021126558       -0.5977745358
CB          0.2897903284        4.0612929707        0.0083379142
HB1         0.2819446805        4.5559498791       -0.9637402784
HB2         0.9469942391        4.6153350569        0.6797573012
HB3        -0.7230330653        4.0629744050        0.4131357376
C           1.0289741347        1.8623723176        1.1749758723
O           1.9858925471        1.0999696840        1.2793926287
N           0.1285610177        1.9930775938        2.1551028947
H          -0.6841536592        2.5620820905        1.9686130896
CA          0.1216712394        1.1537832374        3.3590743416
HA          1.0983263867        1.2218741733        3.8419876107
CB         -0.9372328123        1.7066451755        4.3202735412
HB1        -1.9263096658        1.6511310251        3.8629230951
HB2        -0.7088356975        2.7437760711        4.5687650476
HB3        -0.9367435103        1.1165305448        5.2380322822
C          -0.1271521802       -0.3375555438        3.0385574626
O           0.3596596764       -1.2114345327        3.7482684076
N          -0.8266472317       -0.6249967466        1.9348587148
H          -1.2389806223        0.1515697735        1.4298946724
CA         -0.9723553853       -1.9577650623        1.3418647739
HA         -0.7081865059       -2.7048365844        2.0923318335
CB         -2.4529012749       -2.1609259177        0.9896036482
HB1        -2.7571752036       -1.4458987356        0.2244718291
HB2        -2.6069057865       -3.1732704739        0.6136854712
HB3        -3.0675382528       -2.0207864295        1.8796395709
C          -0.0183763831       -2.1899614365        0.1430313592
O          -0.2751572535       -3.0522715476       -0.6954342858
N           1.0552562682       -1.3946628697        0.0333569497
H           1.2239881944       -0.7451319561        0.7920971108
CA          1.9936592060       -1.2973531286       -1.0922585572
HA          2.6390184071       -0.4455161050       -0.8714387469
CB          2.9183755187       -2.5240678860       -1.1182466137
HB1         3.6700010378       -2.3990637801       -1.8984388597
HB2         3.4218795291       -2.6251340244       -0.1558980967
HB3         2.3452778244       -3.4305124916       -1.3163878160
C           1.3468570202       -0.9614595569       -2.4546876768
O           1.4602209620        0.1730115984       -2.9207278931
N           0.6465498485       -1.9144526502       -3.0786047950
H           0.4932193106       -2.7730530343       -2.5591480510
CH3         0.0156254645       -1.7726216578       -4.3888952960
HH31       -0.5917337877       -0.8665659277       -4.4150628880
HH32       -0.6200488158       -2.6360046768       -4.5911058998
HH33        0.7838881802       -1.7025506992       -5.1609770516
          52
Energy of minimum      2=    -9.952443529     first found at step      920 after               483544 function calls
HH31       -2.2194262996        2.2825740609       -3.4642481670
CH3        -1.1679271644        2.0676492943       -3.2803808324
HH32       -0.5542271604        2.5459656919       -4.0410304870
HH33       -1.0032716872        0.9921026017       -3.3010002504
C          -0.7830755685        2.6021971147       -1.9223252963
O          -1.5983492772        3.2338477795       -1.2606024545
N           0.4602580618        2.3402712112       -1.5188436275
H           1.0038234067        1.7490469690       -2.1385822331
CA          1.0681449648        2.6233612177       -0.2086723169
HA          2.0828191813        2.2266818036       -0.2559098960
CB          1.2153438823        4.1389111227       -0.0096630480
HB1         0.2341210746        4.6069601324        0.0781541468
HB2         1.7459261431        4.5746961544       -0.8569728031
HB3         1.7820586478        4.3335561220        0.9015019038
C           0.4097753445        1.9095424869        0.9925929826
O           1.1157399933        1.2910659700        1.7921397740
N          -0.9206117249        1.9062441766        1.1007104084
H          -1.4492314927        2.4128898895        0.3976320456
CA         -1.6529064898        1.0375619194        2.0183664421
HA         -1.3103910387        1.2335280389        3.0352002616
CB         -3.1456662293        1.3782779522        1.9353221322
HB1        -3.7070345497        0.7438507773        2.6218047152
HB2        -3.3035467970        2.4233395327        2.2047752703
HB3        -3.5094784970        1.2115641796        0.9196040677
C          -1.3662506217       -0.4356809379        1.6697974442
O          -1.6408509558       -0.8755378659        0.5553697395
N          -0.7510339792       -1.1734613616        2.6037997892
H          -0.5512359596       -0.7350773047        3.4880406692
CA         -0.1720533925       -2.5036775137        2.3595665870
HA          0.4707789187       -2.7260533591        3.2113659410
CB         -1.2902144089       -3.5589316325        2.3655877801
HB1        -1.8755382219       -3.4802666251        3.2819680736
HB2        -1.9448452792       -3.4130400863        1.5049960901
HB3        -0.8540022172       -4.5570420174        2.3087350552
C           0.7611539163       -2.5606504582        1.1205721341
O           0.8119089976       -3.5697483891        0.4200729761
N           1.4783898355       -1.4613747181        0.8430783606
H           1.3614855214       -0.6799302526        1.4767643598
CA          2.2346072659       -1.1526364875       -0.3807764265
HA          2.6376999678       -0.1499947847       -0.2369372887
CB          3.4529691281       -2.0796581283       -0.5018058318
HB1         4.0804801218       -1.7477648072       -1.3297525112
HB2         4.0361855409       -2.0505502239        0.4190651114
HB3         3.1328627167       -3.1043200782       -0.6937864676
C           1.4001362975       -1.0651274650       -1.6801524205
O           1.5989548817       -0.1267505445       -2.4541467259
N           0.4520285313       -1.9812462214       -1.9036166306
H           0.3569702509       -2.7148554797       -1.2081552723
CH3        -0.4750794944       -1.9881419515       -3.0321845843
HH31       -0.7604427856       -3.0143457074       -3.2674785163
HH32       -0.0076135174       -1.5379380823       -3.9100628721
HH33       -1.3703177827       -1.4218837151       -2.7694973013
          52
Energy of minimum      3=    -9.758738270     first found at step      439 after               221999 function calls
HH31       -3.2418157684        1.1331046941       -2.3229963588
CH3        -3.2797854936        0.8957068186       -1.2608783236
HH32       -3.6302770830       -0.1276212739       -1.1314754542
HH33       -3.9535294138        1.5804038264       -0.7497862622
C          -1.8918280108        1.0165019704       -0.6802549664
O          -1.3433040558        0.0350042708       -0.1954808572
N          -1.3426034339        2.2315168002       -0.6951686397
H          -1.8767708841        2.9712790635       -1.1200521854
CA          0.0727784222        2.5132026349       -0.4206188787
HA          0.6643051305        2.0719834175       -1.2235310068
CB          0.2663096839        4.0333468545       -0.4817150863
HB1        -0.0442783160        4.4098299749       -1.4573253189
HB2        -0.3170141084        4.5206380690        0.3007078720
HB3         1.3217350287        4.2705417430       -0.3375790492
C           0.6263694918        1.9431558256        0.9043828664
O           1.8042748240        1.6002860713        0.9650081355
N          -0.2076578328        1.7713524369        1.9381066588
H          -1.1720820193        2.0298500465        1.8141270791
CA          0.1818588290        1.1455730378        3.2100604236
HA          1.0331489046        1.6939060581        3.6175341410
CB         -0.9936884629        1.2866845238        4.1848318214
HB1        -0.7107537537        0.8739328691        5.1546184317
HB2        -1.2489837838        2.3392171263        4.3127802869
HB3        -1.8608635622        0.7420593142        3.8086259652
C           0.6275645500       -0.3307855950        3.0757474753
O           1.3183151826       -0.8441826356        3.9505903711
N           0.2677107455       -0.9926779583        1.9722762312
H          -0.3408827164       -0.5155885734        1.3163191302
CA          0.7768673056       -2.2958566014        1.5419728747
HA          1.6560603978       -2.5462454887        2.1379281480
CB         -0.3018237123       -3.3540238261        1.8150195756
HB1        -1.1889175181       -3.1429415872        1.2163066275
HB2         0.0783675160       -4.3424378393        1.5541206434
HB3        -0.5666325833       -3.3467290295        2.8730242366
C           1.2401932949       -2.2442969704        0.0659813155
O           1.0982857464       -3.2176344418       -0.6735881799
N           1.7425613610       -1.0793506803       -0.3701746688
H           1.8582162055       -0.3547799535        0.3285020095
CA          1.9634750642       -0.6477359533       -1.7581520758
HA          2.2992624120        0.3882713637       -1.7003342524
CB          3.1285712939       -1.4318953710       -2.3798820895
HB1         2.8609452038       -2.4825509886       -2.4966002631
HB2         3.3637891437       -1.0166316155       -3.3604092328
HB3         4.0094169481       -1.3546328021       -1.7415755749
C           0.6979954696       -0.6120582450       -2.6469261692
O           0.3875424634        0.4355657280       -3.2146184931
N          -0.0448726147       -1.7192413433       -2.7509246306
H           0.2632815577       -2.5237553011       -2.2128001609
CH3        -1.2787851435       -1.8323894755       -3.5231711970
HH31       -2.0818057517       -1.3065291219       -3.0056779751
HH32       -1.5501927538       -2.8827860438       -3.6364243575
HH33       -1.1400534000       -1.3875558236       -4.5104506125
          52
Energy of minimum      4=    -9.739915349     first found at step      440 after               222972 function calls
HH31       -5.5399495554        1.8768478937       -1.2019628856
CH3        -4.9934443458        1.7494444561       -0.2690537135
HH32       -5.0248811437        2.6711936140        0.3087090293
HH33       -5.4475631597        0.9432789925        0.3067247703
C          -3.5598661073        1.3875007125       -0.5736956557
O          -3.0919473566        0.3299113696       -0.1717075537
N          -2.8455268980        2.2837667026       -1.2556481227
H          -3.3058000058        3.1314574354       -1.5450780268
CA         -1.4903003736        2.0395254914       -1.7707452824
HA         -1.5413948476        1.2071880204       -2.4752577436
CB         -1.0477066206        3.2883278393       -2.5435241352
HB1        -0.9822855197        4.1448455247       -1.8710646302
HB2        -0.0660281074        3.1117219104       -2.9867676536
HB3        -1.7568518116        3.5051080179       -3.3434662708
C          -0.4430824815        1.6459693462       -0.7038533932
O           0.5668900352        1.0332669893       -1.0398091905
N          -0.6970648647        1.9216742454        0.5812216595
H          -1.5584503324        2.3920401314        0.8017167783
CA          0.1325355197        1.4532301272        1.6949010852
HA          1.1421995282        1.8472014934        1.5646002111
CB         -0.4483146908        2.0275502508        2.9926343655
HB1        -1.4584182768        1.6476547385        3.1530339776
HB2        -0.4704388249        3.1168045988        2.9423440110
HB3         0.1794869015        1.7283048577        3.8336130407
C           0.2561556783       -0.0860805167        1.7680891486
O           1.2298252952       -0.5895162117        2.3227274853
N          -0.6704546444       -0.8379906146        1.1586354559
H          -1.4627326303       -0.3796494761        0.7224856248
CA         -0.5811516163       -2.2942173149        1.0238129544
HA         -0.4577579867       -2.7251182908        2.0187959812
CB         -1.9098917746       -2.7952848494        0.4447070063
HB1        -1.8944087396       -3.8846065060        0.3865756943
HB2        -2.0593046927       -2.3877045683       -0.5561972064
HB3        -2.7362035309       -2.4872224396        1.0864771070
C           0.6203956336       -2.7761061458        0.1773120363
O           0.9716626848       -3.9503473649        0.2449753759
N           1.2706608126       -1.8884895368       -0.5874183874
H           0.9285733618       -0.9364361993       -0.6255210481
CA          2.5155141516       -2.1770181742       -1.3061485577
HA          2.5085383526       -3.2271891121       -1.6027342471
CB          2.5324337428       -1.3334438987       -2.5880720237
HB1         1.6314989562       -1.5244255694       -3.1717765062
HB2         2.5853864250       -0.2736238823       -2.3362612823
HB3         3.4045836780       -1.5981992635       -3.1873464182
C           3.7924610909       -1.9747989713       -0.4542930924
O           4.8968396376       -2.1753231012       -0.9575458785
N           3.6635866593       -1.5663317923        0.8174445650
H           2.7290669847       -1.4158078014        1.1789882471
CH3         4.7825360352       -1.3409010216        1.7280582915
HH31        5.3310787917       -2.2735270948        1.8716858833
HH32        4.4107372092       -0.9878010746        2.6909726002
HH33        5.4585737736       -0.5966539671        1.3037065199
          52
Energy of minimum      5=    -9.375702658     first found at step      473 after               241450 function calls
HH31       -3.8306454269       -0.1429921995        2.7566618816
CH3        -4.0693336736       -0.2517957520        1.6991618338
HH32       -5.1076073358        0.0289665411        1.5322593030
HH33       -3.9105608155       -1.2852698515        1.3957954913
C          -3.1668847029        0.6524439337        0.8944143136
O          -2.3149488767        1.3278980536        1.4602926516
N          -3.3549585401        0.6571902447       -0.4259026398
H          -4.0720356193        0.0525371532       -0.7917419543
CA         -2.5735315354        1.4340718167       -1.3960598532
HA         -2.7526213708        0.9884104479       -2.3755919989
CB         -3.1180430851        2.8710236602       -1.4695399118
HB1        -3.0187816815        3.3659321231       -0.5022212346
HB2        -4.1728510673        2.8501519639       -1.7464228683
HB3        -2.5697744081        3.4362308564       -2.2245423950
C          -1.0482673814        1.3169531660       -1.1800378710
O          -0.4601379908        0.2998136928       -1.5392443243
N          -0.4102378864        2.3154328290       -0.5584784115
H          -0.9617228530        3.0866127489       -0.2175499532
CA          1.0225434317        2.3054771719       -0.2488208303
HA          1.5777132285        2.2115926560       -1.1838957909
CB          1.3779415907        3.6530095474        0.3907841180
HB1         0.8378721738        3.7769957574        1.3307427586
HB2         2.4500341881        3.6876822819        0.5912543795
HB3         1.1215175033        4.4677496912       -0.2874534666
C           1.4557424067        1.1268112175        0.6507903421
O           2.6069506581        0.7027621299        0.5832321937
N           0.5393934181        0.5438399537        1.4341153047
H          -0.3973691721        0.9318899054        1.4555507866
CA          0.7972945093       -0.6585523185        2.2317124406
HA          1.6825998049       -0.4777259681        2.8438052382
CB         -0.3951998064       -0.8748713683        3.1713144136
HB1        -0.1817696191       -1.7078210635        3.8428442753
HB2        -0.5706336502        0.0225533740        3.7659568298
HB3        -1.2882827249       -1.1083174563        2.5920630526
C           1.0911741512       -1.9228927686        1.3906365243
O           1.5629648911       -2.9142204067        1.9395506518
N           0.8437584947       -1.8960937783        0.0740654041
H           0.4352014905       -1.0606030924       -0.3265383530
CA          1.2339411930       -2.9567108997       -0.8599922620
HA          1.2491555792       -3.9059553454       -0.3219273844
CB          0.1544503042       -3.0591392874       -1.9460560305
HB1         0.1389263322       -2.1468418572       -2.5433263343
HB2         0.3741068375       -3.9046849696       -2.5993070965
HB3        -0.8226289729       -3.2115746414       -1.4870863756
C           2.6515942814       -2.7737496276       -1.4544649875
O           3.0789370859       -3.5905710920       -2.2687336234
N           3.3792159142       -1.7116952492       -1.0755032138
H           2.9760528735       -1.0704996825       -0.4023335343
CH3         4.7272344028       -1.4225746005       -1.5566243304
HH31        4.7178655326       -1.3276683768       -2.6437948786
HH32        5.3976391062       -2.2383800345       -1.2802923171
HH33        5.0870068131       -0.4928312299       -1.1135199635
          52
Energy of minimum      6=    -8.598398040     first found at step      697 after               363320 function calls
HH31       -4.1840497438        0.3396749520        0.3713514171
CH3        -3.6928668949        0.1511246625       -0.5826573929
HH32       -4.3667367984        0.4189291318       -1.3942862751
HH33       -3.4307228913       -0.9030863698       -0.6497832673
C          -2.4391955532        0.9877706026       -0.6660525130
O          -2.0791422363        1.6473240605        0.3017058159
N          -1.7749488274        0.9573086730       -1.8222504676
H          -2.1526774008        0.3774999485       -2.5539546462
CA         -0.5108354790        1.6521862880       -2.1006282831
HA         -0.1031499207        1.2097829750       -3.0107712925
CB         -0.7848691568        3.1296923713       -2.4280762280
HB1        -1.4616741071        3.1974999026       -3.2807658945
HB2         0.1499107818        3.6312749555       -2.6822593402
HB3        -1.2439993847        3.6310008851       -1.5747147679
C           0.5680671321        1.4072132442       -1.0228107787
O           1.2203504807        0.3654004450       -1.0439005342
N           0.7312608145        2.3132738510       -0.0526827151
H           0.1127541980        3.1094108694       -0.0409270351
CA          1.6344660433        2.1240920895        1.0875070462
HA          2.6470333874        1.9683777126        0.7108771197
CB          1.6208120626        3.4094117480        1.9234386775
HB1         0.6193056043        3.5928475632        2.3157924521
HB2         2.3148277978        3.3053474726        2.7590666653
HB3         1.9331015657        4.2562452038        1.3111405167
C           1.2738117976        0.8908046953        1.9454357239
O           2.1599079615        0.2636960703        2.5154236712
N          -0.0051793919        0.5005187602        1.9789682808
H          -0.6889055379        1.0675639738        1.4897196390
CA         -0.4960934609       -0.7196094788        2.6248887744
HA          0.1731842949       -0.9620773638        3.4522597030
CB         -1.8763225877       -0.4160241832        3.2249577987
HB1        -2.5905146137       -0.2004725441        2.4300030095
HB2        -1.8101203116        0.4414980391        3.8954683479
HB3        -2.2275796410       -1.2786235159        3.7930222707
C          -0.4997756308       -1.9603825014        1.6974460686
O          -1.1286618902       -2.9639375771        2.0231200809
N           0.1624845230       -1.8939269274        0.5343698569
H           0.6346354346       -1.0296865907        0.3101077230
CA          0.2498334124       -2.9917302630       -0.4394201155
HA         -0.0374188367       -3.9264376324        0.0460165512
CB         -0.7599525754       -2.7101954157       -1.5595067142
HB1        -0.5020978939       -1.7821452272       -2.0701322740
HB2        -0.7405775289       -3.5308970442       -2.2780888466
HB3        -1.7628613284       -2.6361868245       -1.1391753055
C           1.6651772661       -3.2237952514       -1.0142605872
O           1.9564235003       -4.3259176366       -1.4727969687
N           2.5465575623       -2.2143592102       -0.9926669185
H           2.2202400450       -1.3068779664       -0.6863031284
CH3         3.9274710127       -2.3189837347       -1.4574486020
HH31        4.4582879905       -3.0654480650       -0.8634275208
HH32        4.4295691547       -1.3558227766       -1.3587295908
HH33        3.9414557996       -2.6301470462       -2.5036092066
          52
Energy of minimum      7=    -8.450520095     first found at step      375 after               185619 function calls
HH31       -4.1320551825       -1.6737052927       -2.0663965936
CH3        -4.2717403358       -0.6397944851       -1.7534302702
HH32       -4.9623331348       -0.6050274245       -0.9126967167
HH33       -4.6648591208       -0.0566921789       -2.5838276731
C          -2.9396284479       -0.0721572727       -1.3255353562
O          -1.9345196680       -0.7721099270       -1.3545324715
N          -2.9300257801        1.1976960917       -0.9261153635
H          -3.8031596942        1.6954686271       -0.8972998398
CA         -1.7363969667        1.8738392132       -0.4128660929
HA         -0.9478845793        1.7935642904       -1.1631229511
CB         -2.0615556881        3.3611583119       -0.2243846461
HB1        -2.4042820621        3.7890501750       -1.1673741799
HB2        -1.1675066119        3.8966145763        0.0975627943
HB3        -2.8385268905        3.4796583315        0.5325362152
C          -1.2056723162        1.2302269079        0.8866168561
O          -1.9288379156        0.5167983570        1.5812949627
N           0.0660399620        1.4873451784        1.2073104060
H           0.5988402637        2.0189195181        0.5288829642
CA          0.8495490371        0.8824826674        2.2969758729
HA          1.8385582569        1.3380912245        2.2383498283
CB          0.2824278926        1.2913630683        3.6646221680
HB1         0.9663787343        0.9682176196        4.4504296808
HB2         0.1722773429        2.3750002816        3.7141717623
HB3        -0.6870049424        0.8210490209        3.8314514768
C           1.1097994625       -0.6344263328        2.1628571978
O           2.2082153324       -1.0721235319        2.4931327089
N           0.1873346988       -1.4154123748        1.5873600926
H          -0.7290731669       -1.0182383822        1.4152399742
CA          0.5262683948       -2.6955258161        0.9567380903
HA          1.1710127879       -3.2654882233        1.6286905699
CB         -0.7583241894       -3.5004446963        0.7233694863
HB1        -1.4370290736       -2.9554233617        0.0672102179
HB2        -1.2541627278       -3.6847499140        1.6771161596
HB3        -0.5091741782       -4.4574169359        0.2634858630
C           1.3224235254       -2.4344198629       -0.3377592586
O           2.4473409694       -2.9051837789       -0.4937399302
N           0.8105804450       -1.5494026788       -1.1993845818
H          -0.1554366492       -1.2638856169       -1.0778543181
CA          1.6354170475       -0.7369319975       -2.0878109469
HA          2.4267422830       -1.3592454529       -2.5094836503
CB          0.7721071181       -0.2264666372       -3.2500611668
HB1         1.3895152433        0.3559950187       -3.9344308429
HB2         0.3419681956       -1.0715278663       -3.7888226899
HB3        -0.0327563936        0.4054829666       -2.8753743648
C           2.2991195256        0.3849147804       -1.2609099491
O           1.7923624751        1.5076318654       -1.1812582532
N           3.3935671101        0.0377340851       -0.5727972339
H           3.6567790024       -0.9412701756       -0.6046725763
CH3         4.1578962413        0.9108426879        0.3172569198
HH31        3.7724761358        1.9316166312        0.2861462103
HH32        4.0916773225        0.5356542724        1.3406389350
HH33        5.2052709093        0.9206544483        0.0124945042
          52
Energy of minimum      8=    -8.016513949     first found at step      663 after               344308 function calls
HH31       -1.5354349648       -1.6730367281       -3.0084544578
CH3        -2.1769958092       -0.7943690279       -3.0663774068
HH32       -3.1538920795       -1.0303781522       -2.6480329771
HH33       -2.2820163762       -0.4891812781       -4.1058005002
C          -1.5498908033        0.3274094875       -2.2745175461
O          -0.4760143006        0.1558264801       -1.7077317193
N          -2.2225969022        1.4763187950       -2.2170535048
H          -3.1168816447        1.5362903725       -2.6746092924
CA         -1.7634532132        2.6290290877       -1.4402459548
HA         -0.8000061454        2.9473936615       -1.8413007712
CB         -2.7603844183        3.7807828729       -1.6173651441
HB1        -3.7397526583        3.4885415976       -1.2342695849
HB2        -2.4126465574        4.6548674437       -1.0653925055
HB3        -2.8468828495        4.0406876675       -2.6731217328
C          -1.5720756662        2.2496795946        0.0419443042
O          -2.4868087573        1.7151368514        0.6665865811
N          -0.3689940587        2.4950498530        0.5754321243
H           0.3022467377        2.9420960634       -0.0275446375
CA          0.1656689460        1.9863508104        1.8506795828
HA          1.2018377904        2.3235294671        1.9036473967
CB         -0.5585257539        2.6571467728        3.0271183974
HB1        -0.5233356209        3.7416095112        2.9187073564
HB2        -1.5988686984        2.3323429198        3.0681311986
HB3        -0.0679968120        2.3791053697        3.9609720593
C           0.2426562155        0.4456580606        1.9885383420
O           1.2429332020       -0.0596013522        2.4911609016
N          -0.7474885443       -0.3099814995        1.5053960405
H          -1.5537564037        0.1708593386        1.1248125011
CA         -0.8045002094       -1.7724624997        1.5901830542
HA         -0.7397303799       -2.0592687984        2.6411694968
CB         -2.1705327129       -2.2152591771        1.0519277187
HB1        -2.2642152663       -1.9426806531       -0.0000229358
HB2        -2.2658073106       -3.2977098354        1.1497445751
HB3        -2.9680228350       -1.7376787503        1.6227871103
C           0.3449786817       -2.4972220235        0.8566663305
O           0.7118096870       -3.6016101243        1.2464378089
N           0.9374399965       -1.8789429511       -0.1706254421
H           0.5394614385       -1.0066040827       -0.4980352164
CA          2.1182289554       -2.3893258886       -0.8744789728
HA          2.0546096386       -3.4783929239       -0.9014362781
CB          2.0620209222       -1.8865959853       -2.3237977126
HB1         1.1188719522       -2.1826735174       -2.7836449868
HB2         2.1502756782       -0.7997319577       -2.3443588760
HB3         2.8839356604       -2.3208440739       -2.8946013324
C           3.4641806376       -2.0547013609       -0.1844440068
O           4.5217054276       -2.3415501973       -0.7435004947
N           3.4467192025       -1.4327524013        1.0039292662
H           2.5471946607       -1.2232939457        1.4214008926
CH3         4.6405673140       -1.0670562758        1.7611961903
HH31        5.1927228779       -1.9690175429        2.0312483751
HH32        4.3537138158       -0.5340515449        2.6688903569
HH33        5.2837283137       -0.4297375290        1.1520560284
          52
Energy of minimum      9=    -7.968655402     first found at step      350 after               172642 function calls
HH31       -4.7854621342       -0.5101173720       -0.4259284875
CH3        -4.0922938861       -0.9098667085       -1.1638858043
HH32       -3.9627534657       -1.9788797595       -0.9995568500
HH33       -4.4751789359       -0.7380618838       -2.1677796807
C          -2.7551106111       -0.2254532788       -1.0112918597
O          -1.7577975910       -0.8769907058       -0.7280111655
N          -2.7295349465        1.0926306221       -1.1923637920
H          -3.5933856579        1.5708086864       -1.3817425879
CA         -1.5206401776        1.8944718359       -0.9999627774
HA         -0.7320644695        1.4729405572       -1.6261982863
CB         -1.7938204168        3.3263897701       -1.4763541693
HB1        -2.5763560084        3.7787056564       -0.8649702696
HB2        -0.8851202469        3.9229405079       -1.3872845026
HB3        -2.1078298458        3.3172130925       -2.5208238606
C          -1.0280071879        1.8568426859        0.4621768368
O          -1.8204928927        1.6880408963        1.3885977950
N           0.2842242547        2.0177992542        0.6577582802
H           0.8547255056        2.0375035668       -0.1779661858
CA          1.0238824384        1.8812254709        1.9235097401
HA          2.0694947491        2.0733274273        1.6793856045
CB          0.6125453215        2.9848301136        2.9095827134
HB1         1.2767972714        2.9621750338        3.7744580485
HB2        -0.4107788932        2.8273095718        3.2515098467
HB3         0.6879172114        3.9611007831        2.4300469389
C           1.0238900322        0.4667866960        2.5454033270
O           2.0426732056        0.0668027907        3.1014558255
N          -0.0385715052       -0.3279299235        2.3747432327