          52
Energy of minimum      1=    -12.94781157     first found at step      180 after                89790 function calls
HH31       -2.8919800389        2.6845215558        3.2624565411
CH3        -2.5574589744        3.0318897239        2.2863064228
HH32       -3.1411060172        3.8991940136        1.9845487495
HH33       -1.5046153639        3.3049380232        2.3322009763
C          -2.7592992384        1.9307924725        1.2725948615
O          -3.5122983517        0.9946844055        1.5159239674
N          -2.0745795018        2.0213635583        0.1363795764
H          -1.3678473741        2.7433329040        0.0692799811
CA         -2.2424356522        1.1180514290       -1.0040931770
HA         -3.2994294586        0.8527406850       -1.0654877740
CB         -1.9034405139        1.8879224451       -2.2882100917
HB1        -2.0537961683        1.2429601778       -3.1548781555
HB2        -0.8664640166        2.2179779396       -2.2652336565
HB3        -2.5534017384        2.7589047110       -2.3799775138
C          -1.4758134440       -0.2136709182       -0.8332318458
O          -0.5993489948       -0.5486258736       -1.6306326254
N          -1.8051970663       -0.9655763949        0.2234765419
H          -2.5144320016       -0.5760853405        0.8371386804
CA         -1.2611567445       -2.2818818322        0.5880561781
HA         -1.5833386636       -2.4716236575        1.6131294675
CB         -1.9195444712       -3.3721107686       -0.2724959431
HB1        -1.6827570765       -3.2207278131       -1.3264386280
HB2        -3.0023018329       -3.3364743180       -0.1449391904
HB3        -1.5611607873       -4.3537429731        0.0402902698
C           0.2809897019       -2.3532774432        0.6420508871
O           0.8629500216       -2.1338017325        1.7009686555
N           0.9516589644       -2.6176283196       -0.4852086915
H           0.4165826227       -2.7048055541       -1.3359987212
CA          2.4133422892       -2.5484263823       -0.5944807313
HA          2.8543590268       -3.1813973772        0.1778252482
CB          2.8164295243       -3.1009683672       -1.9667841610
HB1         2.4646449805       -4.1279174491       -2.0723555991
HB2         3.9038249347       -3.0904909766       -2.0561245312
HB3         2.3891193684       -2.4859745483       -2.7602793650
C           2.9556801467       -1.1185971686       -0.3771954624
O           4.0714208478       -0.9483433286        0.1040104029
N           2.1403687352       -0.0990386444       -0.6671961389
H           1.2493118955       -0.3244342312       -1.0948968193
CA          2.3467144539        1.2937515449       -0.2672707420
HA          3.3393566972        1.3885033642        0.1760449637
CB          2.3281778173        2.1773040280       -1.5217439046
HB1         2.4980842314        3.2177250073       -1.2419845998
HB2         1.3670923292        2.0930048879       -2.0249539522
HB3         3.1182082190        1.8619708600       -2.2042773533
C           1.3463858851        1.7059006068        0.8382859765
O           0.7089164031        2.7583871647        0.7672226084
N           1.1607788390        0.8304583712        1.8362300771
H           1.6644067980       -0.0479442729        1.7864075482
CH3         0.2858007093        1.0200316661        2.9896131659
HH31       -0.7295150054        0.7121859489        2.7392084979
HH32        0.2875266824        2.0674111667        3.2964331242
HH33        0.6405863719        0.4076570246        3.8202860049
          52
Energy of minimum      2=    -8.658625298     first found at step      370 after               172745 function calls
HH31       -2.3468142230        5.3219862867        0.9919420310
CH3        -1.6921505967        4.5176144304        0.6613050417
HH32       -0.8954511404        4.3691458080        1.3868028922
HH33       -1.2569226605        4.7693417249       -0.3040260017
C          -2.4945711978        3.2446134989        0.5365310103
O          -3.6281082425        3.1924132700        0.9980150250
N          -1.9177432188        2.2163600920       -0.0851197575
H          -0.9579655557        2.3272638612       -0.3890185213
CA         -2.5931552217        0.9375734655       -0.3254227369
HA         -3.3630855573        0.8025708157        0.4360755955
CB         -3.2938575050        1.0016621497       -1.6896039800
HB1        -2.5572569510        1.1533459759       -2.4802150143
HB2        -4.0065307048        1.8278529973       -1.6998879130
HB3        -3.8304610583        0.0706839771       -1.8740801051
C          -1.6431582284       -0.2721359772       -0.2502552695
O          -0.6225089634       -0.3178959118       -0.9364365885
N          -2.0190542907       -1.2862143513        0.5392349629
H          -2.8611817608       -1.1646056480        1.0786867551
CA         -1.3020603583       -2.5588944136        0.6964776768
HA         -1.6709267041       -3.0200285010        1.6135758899
CB         -1.6976194587       -3.5024156917       -0.4538456197
HB1        -1.2417030158       -4.4823501296       -0.3060407001
HB2        -1.3747762229       -3.0893346834       -1.4110329222
HB3        -2.7814892195       -3.6245308550       -0.4723266349
C           0.2192685654       -2.3838760825        0.9228748147
O           0.6224785273       -1.7903871249        1.9200895942
N           1.0661263980       -2.8712752664        0.0074285093
H           0.6786000080       -3.3223940271       -0.8050212720
CA          2.5275030230       -2.7464040585        0.0900270934
HA          2.8507373626       -3.1209137409        1.0630280181
CB          3.1400234623       -3.6407513429       -0.9950990350
HB1         2.8441373561       -3.2879247639       -1.9840872070
HB2         4.2282368475       -3.6078596256       -0.9197609999
HB3         2.8106836804       -4.6716784441       -0.8602894286
C           3.0434478975       -1.2923828842       -0.0178372667
O           4.1855266971       -1.0209482772        0.3392676396
N           2.1989677610       -0.3615260809       -0.4707537763
H           1.2700689732       -0.6587599775       -0.7449195551
CA          2.4247531220        1.0826776339       -0.4721449425
HA          3.4358393090        1.2829141252       -0.1142804829
CB          2.3354651486        1.5844847682       -1.9207788375
HB1         3.0534363229        1.0489724724       -2.5428563683
HB2         2.5655973259        2.6500795302       -1.9555887166
HB3         1.3283434864        1.4241795513       -2.3082617109
C           1.4663815922        1.8073414294        0.5028709071
O           1.0266358169        2.9247154526        0.2349298935
N           1.0850793605        1.1523184276        1.6097725324
H           1.4154666349        0.2014740486        1.7293703466
CH3         0.2204006857        1.6939811322        2.6562909685
HH31       -0.8261468033        1.5808585341        2.3734001715
HH32        0.3940922084        1.1563276564        3.5897008369
HH33        0.4374012868        2.7527347441        2.8112931578
          52
Energy of minimum      3=    -8.393452422     first found at step      479 after               224184 function calls
HH31        0.3772476065        4.7462533635       -1.5605971287
CH3        -0.6639335765        4.8311825166       -1.2529707804
HH32       -1.0942998074        5.7479461259       -1.6523685772
HH33       -0.7245878933        4.8345566140       -0.1671960577
C          -1.4379729138        3.6490053283       -1.7864513281
O          -2.4667560023        3.8244678363       -2.4276605398
N          -0.9394922400        2.4473411310       -1.5156190804
H          -0.0768876466        2.4038128717       -0.9831020483
CA         -1.5156225100        1.1769691840       -1.9564128809
HA         -2.5256306659        1.3507081921       -2.3310438455
CB         -0.6585301689        0.6557953930       -3.1199564857
HB1         0.3562568116        0.4587401639       -2.7734065106
HB2        -1.0845516100       -0.2614754192       -3.5259446721
HB3        -0.6240852032        1.4044999655       -3.9129471180
C          -1.6262305091        0.1588486879       -0.8020163463
O          -1.2280341339        0.4248256983        0.3328414142
N          -2.1649871354       -1.0326598109       -1.0849040901
H          -2.4489878414       -1.2209221640       -2.0320678320
CA         -2.2293844643       -2.1251817521       -0.1131913856
HA         -2.8196917614       -1.7864810128        0.7396614536
CB         -2.9493420205       -3.3195342194       -0.7508720146
HB1        -3.9512014278       -3.0257564306       -1.0666679675
HB2        -2.3864278406       -3.6757578118       -1.6154509461
HB3        -3.0304818593       -4.1292236659       -0.0247177321
C          -0.8187392029       -2.4975818818        0.3891011584
O           0.0803635796       -2.7426440640       -0.4143440601
N          -0.6371341622       -2.5147678198        1.7155959244
H          -1.4459279352       -2.2998974271        2.2754464588
CA          0.6437664716       -2.5517691399        2.4425163459
HA          0.3960350542       -2.4676994530        3.5015481133
CB          1.3112111029       -3.9246644912        2.2723691581
HB1         1.6292923166       -4.0682664484        1.2391282200
HB2         2.1866896045       -3.9852706372        2.9201432485
HB3         0.6126775939       -4.7156926221        2.5469487431
C           1.6002715944       -1.3676397737        2.1625035385
O           2.0862648863       -0.7487396052        3.1070987344
N           1.8326022410       -1.0015716183        0.9001946326
H           1.3852347023       -1.5477100703        0.1728663347
CA          2.6335304047        0.1511764662        0.4803365600
HA          3.4951379772        0.2250667648        1.1457029266
CB          3.1672563161       -0.1272773678       -0.9322847546
HB1         3.8041245858        0.6979648940       -1.2533486745
HB2         2.3370881858       -0.2286103876       -1.6313077821
HB3         3.7527717045       -1.0473180305       -0.9334072547
C           1.8620984325        1.4871467976        0.6120276674
O           1.6997130595        2.2306636136       -0.3572967216
N           1.3518060447        1.7761187955        1.8145533149
H           1.5194597147        1.1024456100        2.5540555701
CH3         0.5168740078        2.9377324233        2.1092317854
HH31        0.9742518907        3.8388232067        1.6963896701
HH32       -0.4683823257        2.7993661299        1.6592373424
HH33        0.4052769683        3.0526553508        3.1880562998
          52
Energy of minimum      4=    -7.994599305     first found at step      300 after               142931 function calls
HH31       -1.6820896893        3.3377404635        1.6155801144
CH3        -1.1018155879        3.3154721766        0.6956197081
HH32       -1.3784103833        4.1536488548        0.0589097856
HH33       -0.0409449741        3.3865488506        0.9387108001
C          -1.3544275310        2.0206711036       -0.0379789082
O          -0.4280145412        1.2556001137       -0.2672832732
N          -2.6173221536        1.7629579010       -0.3879712336
H          -3.3069584850        2.4639895364       -0.1710094002
CA         -3.0557237719        0.6049758291       -1.1885232384
HA         -4.1359171712        0.5279129997       -1.0625561890
CB         -2.8058559140        0.9125298337       -2.6739321903
HB1        -1.7329051872        0.9626810626       -2.8667625435
HB2        -3.2380626376        0.1246511165       -3.2925165543
HB3        -3.2660383402        1.8633602617       -2.9443206667
C          -2.4947555958       -0.7682131315       -0.7312317371
O          -2.2802721980       -1.6589104207       -1.5506116608
N          -2.2302339401       -0.9211419609        0.5736717052
H          -2.4350701153       -0.1246185087        1.1530687699
CA         -1.4382475753       -1.9825837290        1.2146360994
HA         -1.3756571249       -1.7186965921        2.2711712004
CB         -2.1949828696       -3.3178902066        1.1580128593
HB1        -1.6621661582       -4.0622063295        1.7512757336
HB2        -2.2631535450       -3.6738499168        0.1293922986
HB3        -3.1996277245       -3.1953933658        1.5637909460
C           0.0319277908       -2.0935177435        0.7464669200
O           0.9238331424       -2.1259014816        1.5909971487
N           0.3071925053       -2.0973438059       -0.5613255899
H          -0.4782919825       -2.0514712895       -1.2010337140
CA          1.6491124154       -2.2606759217       -1.1354225796
HA          2.0753524288       -3.1889885069       -0.7516506429
CB          1.4898085392       -2.3971339706       -2.6545912664
HB1         1.0632929550       -1.4826073448       -3.0695467093
HB2         2.4663549842       -2.5723563690       -3.1084799318
HB3         0.8365043696       -3.2391620300       -2.8867916195
C           2.6447751392       -1.1339901255       -0.7768869651
O           3.8527411340       -1.3490080770       -0.8258989033
N           2.1466490186        0.0427362071       -0.3885311914
H           1.1413063391        0.1657701117       -0.4236468137
CA          2.9120436660        1.1658630809        0.1559415379
HA          3.9453703545        0.8478655192        0.3021109399
CB          2.9146568062        2.3009952503       -0.8785081020
HB1         3.3192654068        1.9376179016       -1.8237690242
HB2         1.8986138956        2.6648256949       -1.0343108049
HB3         3.5370611223        3.1221270712       -0.5210497602
C           2.3912322063        1.5920871036        1.5501404329
O           2.4810008460        2.7601805909        1.9277580388
N           1.8056719674        0.6539225509        2.3098129198
H           1.7633494213       -0.2912568709        1.9425992664
CH3         1.2522095528        0.8924451526        3.6396532135
HH31        2.0378969434        1.2620536442        4.3014014300
HH32        0.4617242602        1.6419562138        3.5805783145
HH33        0.8479979864       -0.0362684977        4.0448410307
          52
Energy of minimum      5=    -7.859076307     first found at step      332 after               156797 function calls
HH31       -6.2645466042        1.0590483696       -2.0177978305
CH3        -5.5775340413        1.8390328643       -1.6908417402
HH32       -5.7568229677        2.0648751755       -0.6412525240
HH33       -5.7307436664        2.7318778251       -2.2943960468
C          -4.1599992924        1.3506363460       -1.8679169322
O          -3.9421149121        0.2277647044       -2.3042348790
N          -3.1864584964        2.1824354412       -1.5018343953
H          -3.4513810493        3.0808439565       -1.1320371703
CA         -1.7510498308        1.9250527538       -1.6762782986
HA         -1.6161899508        1.4865880351       -2.6666267490
CB         -1.0197198079        3.2762839018       -1.6742151669
HB1        -1.1054530614        3.7466748535       -0.6934944077
HB2         0.0369122367        3.1230108474       -1.8992772177
HB3        -1.4454953896        3.9344669345       -2.4326217110
C          -1.1627224713        0.9016243576       -0.6709614935
O          -0.0768346951        1.0999976473       -0.1294668773
N          -1.8683903384       -0.2043721509       -0.4111733140
H          -2.7308126303       -0.3363132854       -0.9294252660
CA         -1.5381299076       -1.1858776426        0.6298757278
HA         -1.5385757459       -0.6743711078        1.5940353072
CB         -2.6511171734       -2.2406033599        0.6477239412
HB1        -2.6816762964       -2.7716328598       -0.3049235807
HB2        -3.6154222824       -1.7630274894        0.8263520954
HB3        -2.4606124929       -2.9575703458        1.4479820871
C          -0.1481427102       -1.8417553186        0.4769276696
O           0.4244032629       -2.2971064584        1.4633164793
N           0.4318316182       -1.8323588007       -0.7289462099
H          -0.0844654383       -1.4375591508       -1.4969672045
CA          1.8022326291       -2.2858171912       -0.9835572772
HA          1.8990000035       -3.3102548379       -0.6193131463
CB          2.0213116117       -2.2925104658       -2.5016511971
HB1         1.2823723266       -2.9340509717       -2.9832568295
HB2         1.9406376542       -1.2791748134       -2.8973777236
HB3         3.0177222399       -2.6793545560       -2.7217810756
C           2.8875172009       -1.4534198835       -0.2600718638
O           4.0196956977       -1.9121067233       -0.1445636889
N           2.5536797096       -0.2601845491        0.2487562693
H           1.6132612772        0.0858692596        0.1010925180
CA          3.4349401089        0.5549650272        1.0898616866
HA          4.4665163686        0.3873564403        0.7756773989
CB          3.1039914404        2.0312401555        0.8315002939
HB1         2.0898058789        2.2502955947        1.1677779535
HB2         3.1894857915        2.2514596423       -0.2329833650
HB3         3.8032759881        2.6635506068        1.3802654691
C           3.3747528132        0.1954816357        2.5947256897
O           4.0584592892        0.8279236750        3.3980055852
N           2.5579525457       -0.7923871376        2.9919903002
H           2.0162785257       -1.2783666195        2.2870945658
CH3         2.4101528290       -1.2324932234        4.3764850662
HH31        1.6632821158       -2.0255264619        4.4353508170
HH32        2.0985491866       -0.3921556849        4.9992064685
HH33        3.3663909027       -1.6080049614        4.7452417924
          52
Energy of minimum      6=    -4.979964804     first found at step       70 after                33098 function calls
HH31       -4.1074383013        3.1815253616       -0.2396307685
CH3        -3.0681068909        3.2931382285       -0.5417806901
HH32       -2.8849570369        4.3238216759       -0.8425437725
HH33       -2.8444217222        2.6251800664       -1.3718100577
C          -2.1665414982        2.9565940881        0.6225775389
O          -1.3850965204        3.7933568670        1.0530817649
N          -2.2881992442        1.7300758784        1.1257176131
H          -2.9873145795        1.1293342984        0.7241052952
CA         -1.4684951182        1.1950515425        2.2209089959
HA         -0.5016374933        1.7019254453        2.2079266901
CB         -2.1652633118        1.5244671542        3.5502818892
HB1        -1.5406021894        1.2008637563        4.3839615355
HB2        -3.1274135641        1.0143533351        3.6064355882
HB3        -2.3198880053        2.6014639782        3.6304912663
C          -1.1737204218       -0.3168396490        2.0765382801
O          -0.7691384593       -0.9771689724        3.0319795086
N          -1.3842809895       -0.8935088596        0.8891979970
H          -1.5080612231       -0.2825930080        0.0919065903
CA         -1.2673411067       -2.3319101424        0.6243098283
HA         -1.5710416465       -2.8767036864        1.5199796874
CB         -2.2529072632       -2.6946952986       -0.4964707305
HB1        -2.2180538489       -3.7694120824       -0.6804970063
HB2        -3.2669646062       -2.4197274075       -0.2047559117
HB3        -1.9832917116       -2.1697979282       -1.4144226226
C           0.1940739795       -2.7330650328        0.3318797111
O           0.4921009786       -3.3040786326       -0.7164082496
N           1.1133643638       -2.3262671295        1.2168923554
H           0.7409811568       -1.9118876326        2.0645213127
CA          2.5491661747       -2.1057199942        0.9734650919
HA          2.9545736617       -1.6776074080        1.8913825250
CB          3.2753839145       -3.4431628176        0.7663791011
HB1         2.9578366981       -3.9105609827       -0.1660767171
HB2         3.0593777967       -4.1151773912        1.5975863177
HB3         4.3509787510       -3.2682099308        0.7226468504
C           2.8443409761       -1.0603283343       -0.1273446723
O           3.6453862883       -0.1543484203        0.0884207735
N           2.1478288166       -1.1166878949       -1.2644156372
H           1.5232453548       -1.9050165444       -1.3878429591
CA          2.0317776198       -0.0075379321       -2.2030827050
HA          3.0200984008        0.4356465882       -2.3367075776
CB          1.5693228546       -0.5550444613       -3.5585094809
HB1         2.2807659418       -1.2990666969       -3.9193588362
HB2         0.5862577096       -1.0179435585       -3.4562353071
HB3         1.5072053466        0.2578388204       -4.2826299717
C           1.0804331390        1.0810714129       -1.6616021125
O          -0.0077475547        0.7813852314       -1.1576183232
N           1.4898739081        2.3475226742       -1.8026271737
H           2.4033830468        2.4998217865       -2.2006977772
CH3         0.7519673632        3.5186745602       -1.3373079843
HH31        0.8021081888        3.5754677201       -0.2478967980
HH32        1.1807725038        4.4288273003       -1.7581750076
HH33       -0.2946806266        3.4466600595       -1.6361252574
          52
Energy of minimum      7=    -4.741141043     first found at step      130 after                62717 function calls
HH31       -3.5054367021        3.8492038387        0.8611752694
CH3        -2.8358535900        3.5329170024        0.0637854934
HH32       -2.6784986038        4.3605515968       -0.6262318371
HH33       -3.2635169165        2.6859408161       -0.4693171216
C          -1.5059314038        3.1286813631        0.6560899019
O          -0.4806297398        3.6979896909        0.3078533481
N          -1.5399301436        2.1502269140        1.5583882513
H          -2.4379988766        1.7623672059        1.7925920519
CA         -0.3663752405        1.6355909661        2.2743089861
HA          0.5291070521        1.9117901279        1.7143672740
CB         -0.2956211229        2.3258518304        3.6448571062
HB1        -1.1607083663        2.0503585965        4.2489517531
HB2        -0.2737088014        3.4085752675        3.5130592702
HB3         0.6136030037        2.0205759239        4.1646311377
C          -0.3482735889        0.0931883231        2.3765863781
O           0.2997810809       -0.4759413561        3.2539021579
N          -1.0631691518       -0.6059029518        1.4892259918
H          -1.4394003855       -0.1041619704        0.6934591360
CA         -1.1582661497       -2.0692761048        1.4651339987
HA         -1.1621299031       -2.4406015900        2.4914333560
CB         -2.4988419995       -2.4542171402        0.8225060463
HB1        -3.3226914663       -2.0249492167        1.3933638945
HB2        -2.6015049852       -3.5401688547        0.8141034496
HB3        -2.5393513056       -2.0877000918       -0.2048111180
C           0.0733669089       -2.6782050691        0.7636183357
O          -0.0401691535       -3.2725945175       -0.3056503881
N           1.2657079488       -2.3944136627        1.3030640773
H           1.2334110500       -1.8994225394        2.1879748577
CA          2.5761153641       -2.4147189313        0.6275694933
HA          3.2978751341       -2.0338489588        1.3512420730
CB          2.9971327961       -3.8602883117        0.3244320053
HB1         2.3508471708       -4.2918123933       -0.4404709740
HB2         2.9376242982       -4.4637969377        1.2306028925
HB3         4.0248894305       -3.8688824404       -0.0407037354
C           2.7015555404       -1.4700028744       -0.5947214024
O           3.7984143724       -1.0047815149       -0.8923399003
N           1.5916542262       -1.1216566830       -1.2501147602
H           0.7406284172       -1.6110121280       -1.0066874093
CA          1.4795205238       -0.1001124850       -2.2859579571
HA          2.3398188126        0.5686450810       -2.2228285024
CB          1.5122604624       -0.8045229090       -3.6504232142
HB1         0.6551232440       -1.4734021067       -3.7439492801
HB2         2.4308335765       -1.3867483036       -3.7402490663
HB3         1.4847978826       -0.0701772698       -4.4553998085
C           0.2070003087        0.7581448943       -2.1014932749
O          -0.6624995971        0.4495423378       -1.2784296486
N           0.1041465637        1.8330079132       -2.8942064853
H           0.8704682404        2.0171353564       -3.5226273285
CH3        -1.0200662770        2.7660578309       -2.9122999587
HH31       -0.8071253281        3.6073094231       -2.2502845464
HH32       -1.9306898073        2.2680438295       -2.5748905122
HH33       -1.1772948030        3.1416231835       -3.9241897573
          52
Energy of minimum      8=    -4.318780795     first found at step       55 after                25977 function calls
HH31       -1.4566046903        3.3330323958       -1.6721029074
CH3        -2.0760734356        3.8355048127       -0.9328920493
HH32       -2.0358183692        4.9119399633       -1.0927312196
HH33       -3.1040806405        3.4911613330       -1.0223071515
C          -1.5676900003        3.5259836683        0.4564881147
O          -1.2383562518        4.4400382094        1.1999635650
N          -1.5124764757        2.2399496843        0.8029483987
H          -1.6232475892        1.5736714746        0.0505282026
CA         -1.0307435056        1.7595841334        2.1070553847
HA         -0.1482253556        2.3336291920        2.3959823349
CB         -2.1348508733        1.9987839638        3.1503069438
HB1        -3.0406700844        1.4571861041        2.8756109880
HB2        -2.3608355522        3.0637291537        3.2195666010
HB3        -1.7939887634        1.6550282109        4.1279054344
C          -0.6431795183        0.2662410067        2.1220923891
O           0.2892516637       -0.1259735684        2.8208428965
N          -1.3552985128       -0.5842925012        1.3740799856
H          -2.0874266365       -0.2069343774        0.7954275787
CA         -1.2371461606       -2.0454689326        1.4391884720
HA         -1.0809265523       -2.3299677012        2.4814074830
CB         -2.5776755703       -2.6508815388        0.9964674289
HB1        -2.5323793180       -3.7377331176        1.0792445091
HB2        -3.3827526245       -2.2824992965        1.6333609565
HB3        -2.7847803353       -2.3852761887       -0.0414989034
C          -0.0220737492       -2.5764332615        0.6470917894
O          -0.1823362162       -3.2378010353       -0.3775147467
N           1.1902659989       -2.2288456421        1.0985413843
H           1.1890795449       -1.6564959775        1.9369290162
CA          2.4829436103       -2.3306710339        0.3962575555
HA          3.2289566383       -1.8975607591        1.0642589332
CB          2.8806242709       -3.8020717687        0.2076515012
HB1         2.2029656517       -4.2946286794       -0.4903203801
HB2         2.8495627083       -4.3209611989        1.1662912499
HB3         3.8944849374       -3.8553619647       -0.1908218319
C           2.5656234159       -1.4930540528       -0.8989859816
O           3.5196344051       -0.7398973478       -1.0852757956
N           1.5282316154       -1.5181647152       -1.7374481858
H           0.7935093848       -2.1898623307       -1.5447813860
CA          1.2254225063       -0.4437962510       -2.6735644371
HA          2.1226567888       -0.2030983653       -3.2463690884
CB          0.1501208919       -0.9397454649       -3.6500744478
HB1         0.5221701235       -1.8036662768       -4.2021948075
HB2        -0.7511529676       -1.2244181082       -3.1043556936
HB3        -0.0973654228       -0.1462797356       -4.3559475677
C           0.7977510301        0.8097350225       -1.8808947825
O          -0.3711510823        0.9643916047       -1.5178661359
N           1.7729690588        1.6706312265       -1.5658182956
H           2.7170046843        1.3889727610       -1.7992829716
CH3         1.6064865540        2.8977772710       -0.7901924523
HH31        1.2386360395        2.6606713998        0.2092728232
HH32        0.8967386653        3.5621795631       -1.2847918588
HH33        2.5642160656        3.4120190371       -0.6967288426
          52
Energy of minimum      9=    -3.167123085     first found at step       10 after                 4917 function calls
HH31       -1.9129975734        4.2111067063       -1.5017931523
CH3        -2.1879174132        3.2377954460       -1.0985516518
HH32       -3.2659877169        3.1062261723       -1.1622723589
HH33       -1.6817588131        2.4535574649       -1.6591212136
C          -1.7572930804        3.1670109883        0.3477432856
O          -1.1884969047        4.1204217868        0.8639049319
N          -2.0386061962        2.0363369642        0.9924939424
H          -2.5285061081        1.3214887889        0.4825315485
CA         -1.6612126266        1.7586618172        2.3849064145
HA         -0.7916126525        2.3678989700        2.6373823907
CB         -2.8254972703        2.1919476414        3.2887449618
HB1        -3.0556967045        3.2443936301        3.1170063631
HB2        -3.7084440460        1.5875629218        3.0784511420
HB3        -2.5462366398        2.0631797602        4.3353646721
C          -1.2509903870        0.2884491143        2.6409186224
O          -1.0596449500       -0.1108251187        3.7874208185
N          -1.1398848298       -0.5341306934        1.5923507039
H          -1.1731655477       -0.1298965457        0.6654451759
CA         -0.8102564823       -1.9578830150        1.6790645446
HA         -0.0949575497       -2.1096037648        2.4892365962
CB         -2.0842507960       -2.7561244127        1.9906260239
HB1        -1.8470866560       -3.8182045172        2.0580673966
HB2        -2.8224680151       -2.6045170675        1.2015588312
HB3        -2.5034765060       -2.4277775838        2.9428898227
C          -0.1756134512       -2.4271318342        0.3610781491
O          -0.6965348843       -2.1187435246       -0.7095698865
N           0.9466444663       -3.1542855913        0.4437171113