          45
Energy of minimum      1=    -70.43301527     first found at step      462 after               157703 function calls
HH31       -6.8218994697      -10.3461189873        4.2082212555
CH3        -7.6833545298      -10.7772148056        4.7173582768
HH32       -7.3659837943      -11.6459623206        5.2936408405
HH33       -8.4214644427      -11.0841795550        3.9769679760
C          -8.2961028814       -9.7399589399        5.6401122762
O          -8.3722225682       -9.9423366470        6.8509070300
N          -8.7305326356       -8.6171525211        5.0720727082
H          -8.6480068411       -8.5155734238        4.0681621125
CA         -9.3601252110       -7.5015459544        5.8034205547
HA         -9.9943677087       -7.9008675416        6.5964346868
CB        -10.2583432574       -6.7156691830        4.8342781312
HB2       -10.7498540280       -5.9047659860        5.3754430632
HB3       -11.0287071319       -7.3854743781        4.4469716201
OG         -9.5044990868       -6.1793009112        3.7463141687
HG        -10.1175981006       -5.7277329859        3.1250988951
C          -8.3539627962       -6.5411568800        6.4710605811
O          -8.7396810680       -5.6916577815        7.2802312840
N          -7.0610466139       -6.6531536423        6.1360210036
H          -6.8121776951       -7.3832065150        5.4823264966
CA         -5.9826569000       -5.7822423207        6.6345123390
HA         -6.1751755302       -5.5516618965        7.6838927161
CB         -4.6464610506       -6.5489107666        6.5526504795
HB2        -4.4550645318       -6.8334046630        5.5160016444
HB3        -3.8416587850       -5.8868912631        6.8776991899
CG         -4.6254368492       -7.8047173428        7.4414676649
HG2        -5.3893408636       -8.5076934715        7.1063387413
HG3        -4.8390378125       -7.5175838110        8.4723185991
CD         -3.2570374029       -8.4965657079        7.3842206092
HD2        -3.0416618820       -8.7829809184        6.3527078603
HD3        -2.4877505183       -7.8024738031        7.7289688929
CE         -3.2617427178       -9.7458337473        8.2766589205
HE2        -3.5028792235       -9.4462486042        9.3012214423
HE3        -4.0496910043      -10.4226943965        7.9322434436
NZ         -1.9498407904      -10.4470596873        8.2534027507
HZ1        -1.9684136457      -11.2666189073        8.8454835291
HZ2        -1.2078250053       -9.8462127848        8.5855796150
HZ3        -1.7127914310      -10.7497626886        7.3184765118
C          -5.9012162130       -4.4165009179        5.9081813110
O          -5.1091566210       -3.5533421333        6.3026937782
N          -6.7082651235       -4.2061857292        4.8594228459
H          -7.3368353770       -4.9570270746        4.6077392119
CH3        -6.7584300974       -2.9800819406        4.0678067136
HH31       -7.5022906361       -3.0820770827        3.2761183448
HH32       -7.0314080790       -2.1361255015        4.7037321914
HH33       -5.7839232411       -2.7874917758        3.6156549015
          45
Energy of minimum      2=    -70.25982291     first found at step      138 after                45245 function calls
HH31       -2.2223056023       -8.5545720217        5.6770332523
CH3        -1.4281609359       -8.1093002038        5.0781744775
HH32       -0.4636568067       -8.4828198846        5.4207751431
HH33       -1.5675394077       -8.3808110953        4.0322202809
C          -1.4616301486       -6.5989721807        5.2170566646
O          -2.3049971813       -6.0515637929        5.9258944452
N          -0.5524177863       -5.9132545131        4.5262586758
H           0.1375741315       -6.4314470472        3.9977596196
CA         -0.3560352636       -4.4525858761        4.6220732485
HA         -0.2063110350       -4.1876478541        5.6695763359
CB          0.9134601858       -4.0490698636        3.8528511119
HB2         1.0954567576       -2.9827183383        4.0017624158
HB3         0.7536015724       -4.2262519281        2.7870984269
OG          2.0528604012       -4.7886867720        4.2898973046
HG          2.8432011818       -4.4866839273        3.7893068419
C          -1.5477456205       -3.6119453588        4.1153099423
O          -1.6419215481       -2.4192715401        4.4184450000
N          -2.4857512470       -4.2227354422        3.3776461229
H          -2.3408705260       -5.1985180868        3.1533778963
CA         -3.7312400656       -3.5899981507        2.9099453754
HA         -3.5276504118       -2.5452609142        2.6678212836
CB         -4.1959208040       -4.2952966523        1.6196117239
HB2        -5.1515002328       -3.8672505623        1.3108026709
HB3        -4.3486139263       -5.3573841446        1.8217861421
CG         -3.1982442039       -4.1309894755        0.4603168916
HG2        -2.2460383375       -4.5932457597        0.7243487880
HG3        -3.0346115092       -3.0679082008        0.2764660884
CD         -3.7312258873       -4.7877200318       -0.8200966808
HD2        -4.6804769410       -4.3231282672       -1.0948657115
HD3        -3.8956725281       -5.8515960902       -0.6369050853
CE         -2.7212331289       -4.6108345931       -1.9627726587
HE2        -2.5486592966       -3.5414582488       -2.1185137206
HE3        -1.7699658331       -5.0632790102       -1.6661828504
NZ         -3.2015985602       -5.2319583150       -3.2263810662
HZ1        -4.0716433077       -4.8167740733       -3.5305823190
HZ2        -3.3515484279       -6.2251158475       -3.1122595754
HZ3        -2.5265700547       -5.1072364057       -3.9688822073
C          -4.8536215757       -3.5674536007        3.9763390995
O          -5.8891399682       -2.9260120717        3.7664383970
N          -4.6643063792       -4.2469201981        5.1155647392
H          -3.7891581846       -4.7473371050        5.2177755685
CH3        -5.6191296172       -4.3227564368        6.2174802700
HH31       -5.8145212584       -3.3240040794        6.6117543941
HH32       -5.2113134239       -4.9452036615        7.0154495464
HH33       -6.5563870257       -4.7609858189        5.8701244971
          45
Energy of minimum      3=    -70.13273975     first found at step      139 after                45554 function calls
HH31       -3.0008958469       -8.2715668827        5.0931601588
CH3        -2.2046934456       -7.9105262839        4.4425564689
HH32       -1.3218496252       -8.5363734132        4.5693349639
HH33       -2.5339513829       -7.9600365350        3.4051093527
C          -1.8598568853       -6.4760183662        4.7955612158
O          -2.4579439714       -5.8874626637        5.6951403348
N          -0.9046470981       -5.8932324033        4.0739602043
H          -0.4680420151       -6.4195515138        3.3276367192
CA         -0.4091897136       -4.5216371676        4.2994520386
HA         -0.1808926724       -4.4045092834        5.3601268004
CB          0.9032533551       -4.3168629437        3.5236903138
HB2         1.6608786883       -4.9839824205        3.9397951452
HB3         1.2442206604       -3.2884220170        3.6587740980
OG          0.7500589888       -4.5955143987        2.1323089285
HG          1.6119589969       -4.4563970054        1.6811845580
C          -1.4265838603       -3.4139789821        3.9500384161
O          -1.2588481571       -2.2611297282        4.3597972419
N          -2.5170545561       -3.7558528491        3.2492774422
H          -2.5769012836       -4.7106333834        2.9220918785
CA         -3.6421726909       -2.8546589889        2.9473383160
HA         -3.2536515389       -1.8481143714        2.7820861024
CB         -4.3212871151       -3.3225375770        1.6439311742
HB2        -5.1905260126       -2.6898275335        1.4547577346
HB3        -4.6687412196       -4.3505831606        1.7648962430
CG         -3.3882952923       -3.2358842190        0.4238168856
HG2        -3.0282596477       -2.2110052834        0.3201791005
HG3        -2.5322681244       -3.8970834655        0.5657891622
CD         -4.1230217180       -3.6441408567       -0.8599889672
HD2        -4.9757300408       -2.9796332719       -1.0139764165
HD3        -4.4846838434       -4.6692985083       -0.7567807589
CE         -3.1728889257       -3.5506249570       -2.0622404505
HE2        -2.8008158549       -2.5243331890       -2.1386325442
HE3        -2.3140417702       -4.2051770619       -1.8847556877
NZ         -3.8466792720       -3.9371570024       -3.3310077720
HZ1        -4.6340576572       -3.3338371577       -3.5257626675
HZ2        -4.1839611666       -4.8892651479       -3.2910960157
HZ3        -3.2088697641       -3.8704508770       -4.1128431355
C          -4.6635541914       -2.7314951142        4.1047375113
O          -5.5720472527       -1.8960005515        4.0382780995
N          -4.5266569928       -3.5412869236        5.1637728170
H          -3.7553457219       -4.1968516022        5.1488773738
CH3        -5.4001032268       -3.5500412544        6.3337646576
HH31       -5.3769222590       -2.5754074367        6.8243805075
HH32       -5.0622393933       -4.3102458382        7.0397977883
HH33       -6.4247181285       -3.7759518056        6.0332694711
          45
Energy of minimum      4=    -69.84093402     first found at step      494 after               169659 function calls
HH31      -13.3769066988       -8.7796281491        5.7440278685
CH3       -12.6632518738       -9.5732460766        5.9633955087
HH32      -12.9689627678      -10.4858195446        5.4521785790
HH33      -12.6424806717       -9.7505744260        7.0382794939
C         -11.2817873743       -9.1545954953        5.4932613069
O         -10.6759688720       -9.8211382898        4.6552706164
N         -10.7748429000       -8.0504403777        6.0384233192
H         -11.3308713183       -7.5614228469        6.7288834893
CA         -9.4722136636       -7.4553487527        5.6940102702
HA         -8.7239944384       -8.2467150453        5.6275823321
CB         -9.5551216629       -6.7635991882        4.3205985006
HB2        -9.8518230777       -7.4965285955        3.5684470514
HB3       -10.3165034239       -5.9819914691        4.3594614461
OG         -8.3061811217       -6.1883012216        3.9432436839
HG         -8.3679430552       -5.8744525480        3.0136338524
C          -9.0073658376       -6.4479578288        6.7630941058
O          -9.8215156421       -5.7582753150        7.3874059862
N          -7.6868019359       -6.3330641363        6.9589714672
H          -7.0698942021       -6.9226203005        6.4146319580
CA         -7.0613155959       -5.3303180928        7.8393051770
HA         -7.7039024193       -5.1693373660        8.7068964590
CB         -5.7105365074       -5.8779093875        8.3433815536
HB2        -5.2196373474       -5.1062520043        8.9394028808
HB3        -5.0701948972       -6.1064931402        7.4890634248
CG         -5.8683067274       -7.1332662163        9.2182117894
HG2        -6.3158500882       -7.9373203177        8.6323421715
HG3        -6.5241642936       -6.9035199195       10.0595194319
CD         -4.5093768345       -7.6049265973        9.7527420634
HD2        -4.0599959905       -6.8074425531       10.3481255606
HD3        -3.8521214862       -7.8344033608        8.9114491184
CE         -4.6911255881       -8.8571779035       10.6221653672
HE2        -5.3695113814       -8.6184299040       11.4470104243
HE3        -5.1607392715       -9.6403325374       10.0190892502
NZ         -3.3949397810       -9.3477692060       11.1629035133
HZ1        -2.7565796383       -9.5920888963       10.4181498734
HZ2        -2.9500240673       -8.6466394567       11.7393859219
HZ3        -3.5307653407      -10.1719248281       11.7328358495
C          -6.8962874631       -3.9438341101        7.1697010400
O          -6.5180825900       -2.9761804814        7.8393475393
N          -7.1806272344       -3.8313591442        5.8649525802
H          -7.4892279187       -4.6692035090        5.3869750759
CH3        -7.0839857210       -2.5998632333        5.0862740772
HH31       -6.0583790660       -2.2269823294        5.1031603204
HH32       -7.7480624911       -1.8410518714        5.5038750057
HH33       -7.3734687763       -2.7934790821        4.0522851174
          45
Energy of minimum      5=    -69.72477637     first found at step      463 after               158068 function calls
HH31       -6.5111997893      -10.4918505049        4.4610471723
CH3        -7.4819889731      -10.8675996312        4.7827612400
HH32       -8.0408231947      -11.2099530370        3.9122882231
HH33       -7.3381176521      -11.7003182592        5.4708472624
C          -8.2519947326       -9.7553626560        5.4704308919
O          -8.6168938963       -9.8727344423        6.6391103538
N          -8.4971785746       -8.6638915978        4.7488895990
H          -8.1793374103       -8.6333995236        3.7881368536
CA         -9.2376663282       -7.4871700205        5.2415660809
HA        -10.0527269085       -7.8167551051        5.8878163447
CB         -9.8571237618       -6.7518485433        4.0419284471
HB2       -10.4313658925       -5.8955952621        4.4012019050
HB3       -10.5399777358       -7.4308619949        3.5273888892
OG         -8.8520649080       -6.3074323166        3.1297777652
HG         -9.2872565253       -5.8882703543        2.3547879557
C          -8.3791567345       -6.5038553753        6.0639379646
O          -8.9107606750       -5.5922758609        6.7054872050
N          -7.0485780918       -6.6649346760        6.0470617218
H          -6.6816827302       -7.4437770106        5.5170199945
CA         -6.0848279374       -5.7794276575        6.7232606252
HA         -6.5072898099       -5.4681356731        7.6803920693
CB         -4.7935402039       -6.5741066425        7.0084937542
HB2        -4.3770172221       -6.9282561561        6.0640428028
HB3        -4.0668120359       -5.9054440068        7.4737071489
CG         -5.0297742879       -7.7646346685        7.9575059756
HG2        -5.6811124229       -8.4971959721        7.4788430790
HG3        -5.5288257911       -7.4012141154        8.8570441029
CD         -3.7278120133       -8.4623121345        8.3807225504
HD2        -3.0701657184       -7.7329733596        8.8580300813
HD3        -3.9770003342       -9.2301262703        9.1158282552
CE         -3.0041871874       -9.1172219185        7.1932369678
HE2        -3.6902835383       -9.8158028764        6.7043202584
HE3        -2.7380953392       -8.3436938358        6.4666852950
NZ         -1.7767658761       -9.8386606941        7.6260169410
HZ1        -1.3103168541      -10.2646215072        6.8362344367
HZ2        -1.9968704226      -10.5738502443        8.2841868087
HZ3        -1.1191263422       -9.2105373333        8.0677527710
C          -5.7902850522       -4.4724938144        5.9455946308
O          -5.0778288329       -3.5990691676        6.4529849875
N          -6.3285546170       -4.3235385744        4.7275914958
H          -6.9105861401       -5.0776823703        4.3887690526
CH3        -6.1519313960       -3.1581127708        3.8655405002
HH31       -6.6987272748       -3.3029485743        2.9325125165
HH32       -5.0936016096       -3.0189470299        3.6380171827
HH33       -6.5318426652       -2.2643809293        4.3636336555
          45
Energy of minimum      6=    -69.64621992     first found at step      481 after               164722 function calls
HH31       -9.1603888531      -11.1753326241        5.8580061790
CH3        -9.0940517951      -10.3132496667        5.1947111321
HH32       -8.0698212201      -10.2090525019        4.8379947540
HH33       -9.7577476063      -10.4599585845        4.3431400559
C          -9.5000725546       -9.0549789906        5.9395518137
O          -9.8350979870       -9.1047571058        7.1219896565
N          -9.4655981065       -7.9159166662        5.2514825947
H          -9.1910785460       -7.9433348770        4.2774081797
CA         -9.8311205191       -6.5973066431        5.8022850884
HA        -10.6762263684       -6.7108297471        6.4830929730
CB        -10.2761600444       -5.6829309206        4.6492623109
HB2       -11.1413972381       -6.1322302752        4.1577330583
HB3       -10.5762458426       -4.7138829353        5.0528680257
OG         -9.2285920849       -5.5023040285        3.6955052095
HG         -9.5653655130       -4.9562713386        2.9511012411
C          -8.6995812624       -5.9136093099        6.5975847649
O          -8.9306428116       -4.9123074529        7.2825621584
N          -7.4669030804       -6.4325258859        6.5094052762
H          -7.3524543456       -7.2654602854        5.9478115906
CA         -6.2674806579       -5.8683959737        7.1521550794
HA         -6.5425743007       -5.4937164565        8.1398048228
CB         -5.2274023772       -6.9925707944        7.3413328299
HB2        -4.9823115134       -7.4250358372        6.3691425899
HB3        -4.3195178791       -6.5546170801        7.7579316462
CG         -5.7186065872       -8.1045002064        8.2884971808
HG2        -6.6323153904       -8.5440240712        7.8869520630
HG3        -5.9495076445       -7.6721531205        9.2633028075
CD         -4.6950723680       -9.2363197710        8.4698983334
HD2        -5.1626034536      -10.0240126223        9.0640297227
HD3        -4.4429153869       -9.6503486016        7.4915020572
CE         -3.4170410603       -8.7627782689        9.1807648043
HE2        -2.9343702967       -7.9920092354        8.5727528570
HE3        -3.6938407943       -8.3105075909       10.1381478791
NZ         -2.4664338443       -9.8839688955        9.4115272984
HZ1        -2.1828279356      -10.3094803574        8.5394329720
HZ2        -2.8808884361      -10.6021851141        9.9898303009
HZ3        -1.6311846003       -9.5586264061        9.8797267438
C          -5.6672084725       -4.6594006411        6.3918309353
O          -4.7267813480       -4.0258107255        6.8838480968
N          -6.1965394918       -4.3282439446        5.2062434878
H          -6.9724141480       -4.8878332943        4.8788709311
CH3        -5.7511674936       -3.2209777153        4.3647448252
HH31       -5.8570980680       -2.2772647532        4.9026754987
HH32       -4.7046685123       -3.3599859293        4.0877730200
HH33       -6.3554514850       -3.1809631827        3.4571410697
          45
Energy of minimum      7=    -69.61201655     first found at step       33 after                10958 function calls
HH31       -0.2458056541       -5.4374440292       -2.0029909117
CH3        -0.8050729619       -5.0641203157       -1.1456616792
HH32       -1.5998552592       -5.7672904293       -0.8977799269
HH33       -1.2412980687       -4.0972994755       -1.3949225407
C           0.1320952211       -4.9060953771        0.0367244610
O          -0.0678289506       -5.5178762869        1.0851133015
N           1.1530642488       -4.0649503197       -0.1149583351
H           1.2490804036       -3.5685096645       -0.9918942009
CA          2.1867429551       -3.8155244915        0.9082009733
HA          2.5600347755       -4.7759231032        1.2674981982
CB          3.3716090901       -3.0731341900        0.2671907106
HB2         4.1223934693       -2.8651539868        1.0321680827
HB3         3.8231925049       -3.7227764343       -0.4852748652
OG          2.9642739608       -1.8534699813       -0.3521779819
HG          3.7463487194       -1.4303750983       -0.7701737722
C           1.6780774735       -3.0537656141        2.1508149398
O           2.3506692088       -3.0277565201        3.1860172412
N           0.4702180376       -2.4763945729        2.0853248608
H          -0.0136954977       -2.5156645267        1.1981832518
CA         -0.2061881670       -1.8008481685        3.2049865628
HA          0.5466315052       -1.3565663838        3.8573922845
CB         -1.0916616726       -0.6668432718        2.6436998166
HB2        -1.5393315315       -0.1265769821        3.4798677522
HB3        -1.9057266590       -1.1107514807        2.0675183766
CG         -0.3719602317        0.3563806568        1.7436477935
HG2        -0.0126384116       -0.1396968421        0.8409497696
HG3        -1.1019833486        1.1082399703        1.4398554698
CD          0.8048718335        1.0634266822        2.4330026013
HD2         1.5798801821        0.3341837580        2.6749046243
HD3         0.4529324047        1.5342861752        3.3531608188
CE          1.3911035754        2.1298191297        1.4971013922
HE2         1.7207980349        1.6441491672        0.5734105219
HE3         0.6027468067        2.8428659430        1.2369862132
NZ          2.5331137072        2.8491343729        2.1230281639
HZ1         3.2839146511        2.2132297075        2.3550881065
HZ2         2.9067272782        3.5478234637        1.4946070048
HZ3         2.2483494603        3.3210430257        2.9705347966
C          -1.0204324982       -2.7614515244        4.1057379468
O          -1.5468152972       -2.3380905647        5.1407371926
N          -1.1270817696       -4.0443545088        3.7334649109
H          -0.6640791534       -4.3168504594        2.8756257097
CH3        -1.8554032080       -5.0752506043        4.4675572391
HH31       -1.7824326093       -6.0260888591        3.9373248415
HH32       -2.9074824457       -4.7984727899        4.5553783674
HH33       -1.4310763242       -5.1929330296        5.4661883159
          45
Energy of minimum      8=    -69.59167131     first found at step        9 after                 3185 function calls
HH31       -0.8024552876       -5.3075257777       -1.2425151351
CH3        -1.3482907877       -4.5177040996       -0.7273461670
HH32       -2.1670696484       -4.9559713696       -0.1571826276
HH33       -1.7506860791       -3.8210272666       -1.4621184729
C          -0.4062344810       -3.7802012022        0.2053983020
O          -0.6244127470       -3.7388674088        1.4153299562
N           0.6412263360       -3.1772656779       -0.3543155453
H           0.7815365925       -3.2893910484       -1.3501659865
CA          1.7237377717       -2.5116611255        0.3983335936
HA          2.1264294394       -3.2155197937        1.1279211405
CB          2.8639512865       -2.1317696373       -0.5618642545
HB2         2.5066190208       -1.3626008948       -1.2499660523
HB3         3.6933006278       -1.7192094023        0.0163991103
OG          3.3224670530       -3.2582787107       -1.3081527250
HG          4.0616427952       -2.9776963492       -1.8923416839
C           1.2802620611       -1.2593041152        1.1848624643
O           1.9997761680       -0.7946758089        2.0732217602
N           0.0855852401       -0.7223710483        0.8995967796
H          -0.4479750952       -1.1434965986        0.1499925004
CA         -0.5274267050        0.4022290885        1.6267616190
HA          0.2594808949        1.0769182701        1.9661853284
CB         -1.4516870562        1.1762818270        0.6620734206
HB2        -2.2713154643        0.5207465819        0.3616555958
HB3        -1.8889987808        2.0213010924        1.1970774928
CG         -0.7774513691        1.7171221978       -0.6133600087
HG2        -0.4000801916        0.8858182809       -1.2103970047
HG3        -1.5390325625        2.2303221059       -1.2025508817
CD          0.3693771159        2.6997700830       -0.3309603947
HD2         0.0022110532        3.5070400944        0.3061625907
HD3         1.1810948774        2.1792321395        0.1800949879
CE          0.8940451011        3.2831563257       -1.6508936548
HE2         1.2433243068        2.4628159970       -2.2855299461
HE3         0.0678040107        3.7783890677       -2.1703414601
NZ          1.9996964916        4.2534845575       -1.4274107700
HZ1         1.6945951477        5.0314748613       -0.8584255304
HZ2         2.7846668686        3.8156374303       -0.9647280414
HZ3         2.3324545860        4.6290651954       -2.3054457771
C          -1.2848939587       -0.0263965128        2.9072861247
O          -1.7251584839        0.8335323545        3.6781320527
N          -1.4369980621       -1.3351935378        3.1502352985
H          -1.0473441193       -1.9816714297        2.4741629547
CH3        -2.1206530482       -1.9006869980        4.3098243571
HH31       -3.1590725575       -1.5654524134        4.3314818394
HH32       -2.1012960883       -2.9901528454        4.2531574386
HH33       -1.6224615819       -1.5846543497        5.2280139378
          45
Energy of minimum      9=    -69.57041768     first found at step      378 after               127240 function calls
HH31       -8.1966042776      -13.7417516460        4.4332844787
CH3        -7.4027262974      -13.3087267197        5.0411804466
HH32       -6.6609806130      -14.0747979309        5.2651972722
HH33       -6.9305817443      -12.4964533946        4.4893528099
C          -7.9930693461      -12.7675816918        6.3291611960
O          -7.5996344520      -13.1800909550        7.4199008709
N          -8.9335032746      -11.8331444643        6.2058608146
H          -9.2132581290      -11.5471131693        5.2757718549
CA         -9.6544117614      -11.2083784389        7.3310125103
HA         -9.8306376124      -11.9595258752        8.1025859834
CB        -11.0266411515      -10.7210115733        6.8371491095
HB2       -11.5568654610      -10.2405042513        7.6618249286
HB3       -11.6090933971      -11.5861777447        6.5141180429
OG        -10.8992512227       -9.8070967503        5.7475012057
HG        -11.7958836299       -9.5299021914        5.4557885031
C          -8.8908802226      -10.0500809193        8.0076897595
O          -9.2500040412       -9.6309731792        9.1125294740
N          -7.8211693897       -9.5474669841        7.3734721639
H          -7.5905418306       -9.9576475295        6.4779208586
CA         -6.8486894463       -8.5987438943        7.9528837834
HA         -7.1486891087       -8.3496095722        8.9718912345
CB         -5.4739179462       -9.3002704190        8.0241887123
HB2        -4.7346566702       -8.6073579557        8.4299789739
HB3        -5.1640456176       -9.5795900708        7.0152274306
CG         -5.5009951321      -10.5539000824        8.9162365983
HG2        -6.2692512886      -11.2336634468        8.5585388928
HG3        -5.7475659334      -10.2635127728        9.9386710575
CD         -4.1550753358      -11.2918093366        8.9101257610
HD2        -3.4078680201      -10.6573558209        9.3905737837
HD3        -3.8343191797      -11.4785659410        7.8832599220
CE         -4.2422972701      -12.6233840900        9.6749817324
HE2        -3.2254476246      -12.9867579433        9.8525998143
HE3        -4.7011654633      -12.4400483051       10.6513450431
NZ         -5.0117785688      -13.6625767801        8.9322884298
HZ1        -4.5579167344      -13.8949249889        8.0591322272
HZ2        -5.9558026302      -13.3575012775        8.7179041079
HZ3        -5.0800659502      -14.5141331184        9.4740221525
C          -6.7790798583       -7.2453862185        7.2036613841
O          -5.9360792435       -6.3988682922        7.5211981062
N          -7.6556375649       -7.0299595016        6.2141488409
H          -8.3281712560       -7.7619853953        6.0335610604
CH3        -7.7266054252       -5.8184763635        5.4005521827
HH31       -8.5288959986       -5.9117182577        4.6669066458
HH32       -6.7823761948       -5.6659495669        4.8747664514
HH33       -7.9264548925       -4.9534408631        6.0354149456
          45
Energy of minimum     10=    -69.56698632     first found at step       21 after                 7002 function calls
HH31        0.1500386891       -3.1995535941       -3.0094336751
CH3        -0.5811581751       -3.1243471714       -2.2051656111
HH32       -1.1577852964       -4.0475581263       -2.1526386904
HH33       -1.2515582157       -2.2893441395       -2.4062781680
C           0.1388026908       -2.8892857556       -0.8907932572
O           0.0185696322       -3.6800730983        0.0436696709
N           0.8808525698       -1.7871543397       -0.8025712352
H           0.9332994870       -1.1691862573       -1.6028499637
CA          1.6920596826       -1.4210461731        0.3735673027
HA          2.2043954931       -2.3146220922        0.7336510816
CB          2.7769023719       -0.4174184977       -0.0529422716
HB2         3.3688547918       -0.1311445991        0.8183356923
HB3         3.4411616471       -0.9148885097       -0.7623157916
OG          2.2342867339        0.7521964059       -0.6693896544
HG          2.9757694548        1.2460936678       -1.0864347876
C           0.8757797048       -0.8837309875        1.5687859594
O           1.4255057925       -0.6600128262        2.6514030814
N          -0.4425373759       -0.7026003519        1.4036883778
H          -0.8284418778       -0.9073874003        0.4913384104
CA         -1.3587300480       -0.1803436752        2.4335464320
HA         -0.7947486284        0.4602302139        3.1132593092
CB         -2.4427039407        0.6858545843        1.7537086157
HB2        -3.1339636959        0.0291178202        1.2220861810
HB3        -3.0113876099        1.2016294303        2.5296541153
CG         -1.9266944679        1.7383952314        0.7529564333
HG2        -1.5167949901        1.2235878954       -0.1159806327
HG3        -2.7768204199        2.3325185105        0.4144801870
CD         -0.8647298283        2.6847323871        1.3405684390
HD2        -1.2921063599        3.1934624354        2.2066932211
HD3         0.0032141890        2.1157260996        1.6764363178
CE         -0.3968853059        3.7472339198        0.3331345346
HE2        -1.2626792819        4.3220709117       -0.0096975143
HE3         0.2713184212        4.4387328134        0.8555217227
NZ          0.3199138936        3.1562095428       -0.8315006741
HZ1         1.0668792866        2.5389141827       -0.5321490449
HZ2        -0.3058683977        2.6192753023       -1.4160373672