          45
Energy of minimum      1=    -70.25982585     first found at step       70 after                23878 function calls
HH31       -5.0523014171       -2.8369218949       -2.7384830364
CH3        -4.8686308325       -2.2820412072       -1.8189543818
HH32       -5.7028174960       -2.4306405870       -1.1336694889
HH33       -4.7755131719       -1.2217187376       -2.0517849298
C          -3.5828891328       -2.7743886246       -1.1818033253
O          -3.5863571025       -3.2538592050       -0.0488996109
N          -2.4693336924       -2.6437358908       -1.9008317216
H          -2.5475202205       -2.2801893033       -2.8419185106
CA         -1.1477144792       -3.1657387604       -1.4981717535
HA         -1.2443273603       -4.2294520956       -1.2766946443
CB         -0.1559875305       -3.0204557121       -2.6650123854
HB2         0.7914814048       -3.4863437417       -2.3863479551
HB3         0.0224405600       -1.9587338828       -2.8485531696
OG         -0.6501970822       -3.6302453836       -3.8567291605
HG          0.0202008556       -3.5329715311       -4.5691472130
C          -0.5533377690       -2.5000085617       -0.2383389345
O           0.3737221807       -3.0393890956        0.3722831217
N          -1.0973617289       -1.3512960643        0.1877649511
H          -1.8452335877       -0.9552983370       -0.3665922559
CA         -0.7172148741       -0.6496906347        1.4261433492
HA          0.3569470812       -0.7651698304        1.5823142991
CB         -1.0145014815        0.8543743820        1.2595774599
HB2        -2.0754989913        0.9923040675        1.0416802078
HB3        -0.7918531143        1.3619639742        2.2000555520
CG         -0.1727582212        1.5071190053        0.1497519352
HG2        -0.4108022883        1.0496749283       -0.8115855004
HG3         0.8856493033        1.3485652621        0.3627138937
CD         -0.4495699939        3.0141083156        0.0650059874
HD2        -0.2047743693        3.4796073888        1.0219839422
HD3        -1.5086785212        3.1737424987       -0.1476914057
CE          0.4008955788        3.6443749664       -1.0469987244
HE2         1.4573708636        3.4557469826       -0.8327973520
HE3         0.1596791002        3.1554428746       -1.9958617036
NZ          0.1645871523        5.1087484314       -1.1611061954
HZ1        -0.8027673507        5.3078151081       -1.3766712334
HZ2         0.7311991382        5.5092349215       -1.8966933154
HZ3         0.3982085788        5.5852870907       -0.3007422289
C          -1.3944506085       -1.2216269619        2.6956647879
O          -1.0396646386       -0.8286053008        3.8125644121
N          -2.3536496223       -2.1450587116        2.5454608776
H          -2.5894821674       -2.4198800063        1.5990969077
CH3        -3.0840321746       -2.7833523228        3.6366890764
HH31       -3.8089056550       -3.4903329810        3.2301840365
HH32       -2.3907297001       -3.3206158854        4.2861625501
HH33       -3.6137944337       -2.0301297640        4.2224878471
          45
Energy of minimum      2=    -70.21328363     first found at step      100 after                34341 function calls
HH31       -4.8565761147       -2.2370508800       -2.5406218003
CH3        -3.9470411550       -1.8352430013       -2.0950882719
HH32       -4.1876164435       -0.9342528436       -1.5312246027
HH33       -3.2381470377       -1.5897159290       -2.8852594063
C          -3.3366205568       -2.8737360693       -1.1730555703
O          -3.1758575575       -2.6351585791        0.0229973159
N          -2.9748386439       -4.0294649455       -1.7279558164
H          -3.1775724469       -4.1738503941       -2.7089026677
CA         -2.4656910595       -5.1949959573       -0.9768657247
HA         -3.1878214207       -5.4544146840       -0.2015156214
CB         -2.3385036989       -6.4040460975       -1.9191385170
HB2        -1.5570544878       -6.2001172769       -2.6543153293
HB3        -2.0440850538       -7.2793714024       -1.3364392643
OG         -3.5649699459       -6.6766790139       -2.5956077207
HG         -3.4460681201       -7.4652219781       -3.1705493114
C          -1.1152749741       -4.9562745565       -0.2677254237
O          -0.7461477109       -5.7066354106        0.6398404749
N          -0.3872045596       -3.8923530268       -0.6354476255
H          -0.7367822651       -3.3318758878       -1.4010555521
CA          0.8525220227       -3.4529147443        0.0267873002
HA          1.4385576385       -4.3411178598        0.2702500570
CB          1.6821641560       -2.6181017977       -0.9704894003
HB2         1.8499727959       -3.2143300392       -1.8696002631
HB3         2.6568529940       -2.4119981398       -0.5241300005
CG          1.0276352769       -1.2820328865       -1.3684248334
HG2         0.8798159514       -0.6681384156       -0.4789353329
HG3         0.0578451761       -1.4706144002       -1.8308850017
CD          1.9119578118       -0.5151730622       -2.3608700115
HD2         2.0587088263       -1.1229463005       -3.2562304982
HD3         2.8830409011       -0.3201196199       -1.9009452917
CE          1.2469907740        0.8148363673       -2.7438523086
HE2         1.0848714883        1.4030442786       -1.8352669632
HE3         0.2679925131        0.6060507466       -3.1862422440
NZ          2.0772191016        1.5914463297       -3.7037007395
HZ1         1.6272216422        2.4639474801       -3.9463631291
HZ2         2.9816524632        1.8127403767       -3.3099566569
HZ3         2.2265017915        1.0753367897       -4.5600485038
C           0.6309017739       -2.7155467331        1.3700564074
O           1.5955580128       -2.4669673570        2.1011449488
N          -0.6183471654       -2.3658653638        1.7045503309
H          -1.3575087183       -2.6002562617        1.0520011153
CH3        -0.9948900242       -1.6670657540        2.9296601163
HH31       -0.4895500160       -0.7009663249        2.9788620345
HH32       -0.7154525753       -2.2628868855        3.8003110118
HH33       -2.0736142679       -1.5037834516        2.9433061986
          45
Energy of minimum      3=    -70.13274264     first found at step       36 after                12467 function calls
HH31       -5.6749391800        0.8824038750        3.2961676803
CH3        -6.0458670922        0.4407084879        4.2205465207
HH32       -6.0608925727        1.1982902160        5.0037565015
HH33       -7.0564016841        0.0664866953        4.0594610152
C          -5.1430257297       -0.7075818630        4.6299904044
O          -4.5477251488       -0.6879220234        5.7063636083
N          -5.0165736753       -1.7103008137        3.7631929602
H          -5.5095121965       -1.6567122899        2.8807109887
CA         -4.2166623944       -2.9263260238        4.0061388479
HA         -4.4837886428       -3.3283207881        4.9848692539
CB         -4.5767588694       -3.9942330294        2.9591666886
HB2        -5.6193946730       -4.2847076048        3.1031211080
HB3        -3.9529324406       -4.8765169134        3.1160513801
OG         -4.4063653725       -3.5137570006        1.6260627358
HG         -4.6522826295       -4.2259945181        0.9952054681
C          -2.6915989627       -2.6869520535        4.0372678832
O          -1.9360304869       -3.5392335144        4.5145849197
N          -2.2274313672       -1.5106419377        3.5923937697
H          -2.8982651244       -0.8704405311        3.1894519353
CA         -0.8234799645       -1.0729812814        3.6735235140
HA         -0.1748956377       -1.9385798383        3.5270088180
CB         -0.5455157308       -0.0717267154        2.5336980314
HB2         0.4774551624        0.2964308204        2.6320618004
HB3        -1.2235457065        0.7792383985        2.6251767260
CG         -0.6979944764       -0.7023381692        1.1387998811
HG2        -0.0332001674       -1.5641248318        1.0605978145
HG3        -1.7263864375       -1.0368427908        0.9951345910
CD         -0.3461863561        0.3070364729        0.0378694796
HD2        -1.0102396406        1.1703582147        0.1160260109
HD3         0.6858430491        0.6386733671        0.1694986015
CE         -0.5063008961       -0.3438873830       -1.3432777405
HE2        -1.5388367842       -0.6895084941       -1.4527008785
HE3         0.1470290321       -1.2200791555       -1.3980216699
NZ         -0.1728347526        0.6016805900       -2.4423102736
HZ1        -0.7761540109        1.4125480350       -2.4232891091
HZ2        -0.2828307455        0.1589016141       -3.3447319439
HZ3         0.7836695920        0.9212392560       -2.3725197037
C          -0.4387435610       -0.4818631832        5.0521168918
O           0.7424621672       -0.2152199380        5.3000726690
N          -1.4108819719       -0.2802621971        5.9523187300
H          -2.3538147555       -0.5272359998        5.6788416654
CH3        -1.2155281932        0.2648262423        7.2926848606
HH31       -2.1749183663        0.3257293608        7.8088312225
HH32       -0.7829038627        1.2648522495        7.2298135264
HH33       -0.5459321868       -0.3802668778        7.8642164895
          45
Energy of minimum      4=    -70.08905333     first found at step       92 after                31778 function calls
HH31       -4.9509841934       -2.0088125367       -2.6596524965
CH3        -4.4244772254       -1.4405914326       -1.8934043517
HH32       -5.1485890753       -0.9195332018       -1.2674822499
HH33       -3.7694781414       -0.7133128317       -2.3721740703
C          -3.5954851084       -2.3867069907       -1.0456436472
O          -3.7818352433       -2.4730307496        0.1672259011
N          -2.6544334898       -3.0883559277       -1.6743599352
H          -2.5300566026       -2.9545391393       -2.6700773253
CA         -1.7774184236       -4.0791470137       -1.0204495413
HA         -2.3991649009       -4.7686871439       -0.4469282141
CB         -1.0466782888       -4.9055747966       -2.0924024671
HB2        -1.7863489686       -5.4823793177       -2.6513139782
HB3        -0.3664543034       -5.6064078075       -1.6041654032
OG         -0.3182298926       -4.0782795762       -2.9989654004
HG          0.1306337312       -4.6477896226       -3.6624776534
C          -0.7698767625       -3.4697749767       -0.0216345085
O          -0.2071372505       -4.1850508314        0.8129135948
N          -0.5819193113       -2.1426582333       -0.0456080608
H          -1.0461135720       -1.6239326087       -0.7782939963
CA          0.2131757865       -1.3859107989        0.9354243704
HA          1.1114004984       -1.9640544453        1.1599349113
CB          0.6712110223       -0.0610391354        0.2910565143
HB2         1.2126488718       -0.2895137410       -0.6291089008
HB3         1.3683530613        0.4329193761        0.9705467372
CG         -0.4789282461        0.9111970531       -0.0313145425
HG2        -1.1772983234        0.4386064499       -0.7233828230
HG3        -1.0108636742        1.1653477219        0.8865005395
CD          0.0580317539        2.1999384239       -0.6684110729
HD2         0.5868912134        1.9519499031       -1.5911266628
HD3         0.7548048929        2.6793707999        0.0224087505
CE         -1.1001858737        3.1587737694       -0.9797974480
HE2        -1.7995680174        2.6598577443       -1.6577979679
HE3        -1.6350023476        3.3798546318       -0.0508721271
NZ         -0.6190233239        4.4246731281       -1.5960107703
HZ1         0.0156117276        4.9138730778       -0.9796232086
HZ2        -1.3919104097        5.0456714939       -1.7951418980
HZ3        -0.1360282889        4.2480289594       -2.4663591941
C          -0.4954509316       -1.1655167494        2.2944807909
O           0.1369543289       -0.7022409781        3.2496335888
N          -1.7917507949       -1.4895076246        2.3951868997
H          -2.2429706673       -1.8626483042        1.5689127412
CH3        -2.6029141830       -1.3407899429        3.5997916912
HH31       -3.6223642187       -1.6748548217        3.4006789382
HH32       -2.1842675193       -1.9424313484        4.4084298106
HH33       -2.6267069652       -0.2937908588        3.9069994156
          45
Energy of minimum      5=    -69.61201365     first found at step       19 after                 6709 function calls
HH31       -3.9051930076       -1.6800692106        1.0296630852
CH3        -4.6027219937       -2.1485199397        1.7233294946
HH32       -5.2522854226       -2.8294953191        1.1742358874
HH33       -5.2074711661       -1.3797139980        2.2037338658
C          -3.8284431212       -2.9261168438        2.7707684530
O          -3.9273648428       -2.6455693448        3.9644486089
N          -3.0324653812       -3.8982006495        2.3298796277
H          -2.9714370606       -4.0633637868        1.3330418152
CA         -2.2369470141       -4.7840359832        3.2016629580
HA         -2.8869371350       -5.1766758155        3.9853424698
CB         -1.7279554858       -5.9831540599        2.3837456422
HB2        -2.5884492450       -6.5638522662        2.0453565877
HB3        -1.1166130017       -6.6221447267        3.0241163346
OG         -0.9675328847       -5.5699347566        1.2487885762
HG         -0.6887179617       -6.3653689945        0.7438952205
C          -1.0650279174       -4.0811101139        3.9197210910
O          -0.5037914964       -4.6230307423        4.8768185952
N          -0.7196121668       -2.8530140792        3.5085778368
H          -1.2050841986       -2.4813716252        2.7030137697
CA          0.3017995593       -2.0043513014        4.1442036704
HA          1.0730310408       -2.6425988095        4.5773307985
CB          0.9573920747       -1.1164305581        3.0639868157
HB2         1.7585125143       -0.5371445694        3.5267033245
HB3         0.2134557929       -0.4084595302        2.6937474550
CG          1.5471476849       -1.8662988478        1.8536410450
HG2         0.7455204605       -2.3629349170        1.3051748331
HG3         1.9959293442       -1.1278990908        1.1874002662
CD          2.6166207034       -2.9023153150        2.2317351939
HD2         3.4044801718       -2.4126418902        2.8077200583
HD3         2.1654853670       -3.6910679470        2.8361323856
CE          3.2134768987       -3.5212710921        0.9599537630
HE2         2.4083502702       -3.9903349532        0.3859077899
HE3         3.6405903082       -2.7225549473        0.3457642854
NZ          4.2616015606       -4.5294681262        1.2735766534
HZ1         4.6446721286       -4.9264238360        0.4260214613
HZ2         3.8861903839       -5.2890500533        1.8249661366
HZ3         5.0256988097       -4.1148725190        1.7896404304
C          -0.2428490187       -1.1564795160        5.3196087305
O           0.5340673417       -0.4836323052        6.0060593054
N          -1.5600261439       -1.1822750390        5.5649255849
H          -2.1312927442       -1.7610828767        4.9623067011
CH3        -2.2315273983       -0.4440439142        6.6308483284
HH31       -1.8425494091       -0.7541426298        7.6022912736
HH32       -3.3037115021       -0.6438702051        6.5983646179
HH33       -2.0668949692        0.6274196554        6.5041549427
          45
Energy of minimum      6=    -69.59167131     first found at step        9 after                 3372 function calls
HH31       -1.9415634570        0.1531962187       -2.1361309719
CH3        -2.0944065745       -0.8799427789       -2.4466687551
HH32       -3.0766415686       -1.2162944516       -2.1155412069
HH33       -2.0382954167       -0.9404937846       -3.5331027641
C          -1.0160781071       -1.7556879836       -1.8370205730
O          -1.3107195106       -2.6851828507       -1.0870401855
N           0.2448099148       -1.4538624861       -2.1420578914
H           0.4109716691       -0.7028216160       -2.7995569795
CA          1.4176634530       -2.2563460827       -1.7398442536
HA          1.2615852448       -3.2878466858       -2.0584689409
CB          2.6739369693       -1.7319170870       -2.4561789451
HB2         2.8992535257       -0.7286733521       -2.0880411390
HB3         3.5170174132       -2.3840658536       -2.2188350010
OG          2.4945158328       -1.6875385805       -3.8711151577
HG          3.3239705124       -1.3674022595       -4.2905214637
C           1.6761317917       -2.2941130533       -0.2181793019
O           2.4233064610       -3.1487899755        0.2655764461
N           1.0404713517       -1.4020780914        0.5545663017
H           0.4534518420       -0.7194386398        0.0926665180
CA          1.0951183578       -1.3725220586        2.0261022210
HA          2.0801435536       -1.7090780685        2.3518213225
CB          0.8932589191        0.0816591885        2.5042735572
HB2        -0.1120798886        0.4045398279        2.2271273343
HB3         0.9546311461        0.1047236694        3.5938743740
CG          1.8977221154        1.1092939278        1.9485280839
HG2         1.8024818595        1.1666178590        0.8633683523
HG3         1.6367839534        2.0868785604        2.3568974097
CD          3.3575391837        0.7987860703        2.3133307427
HD2         3.4428013083        0.6946984214        3.3969901075
HD3         3.6642306406       -0.1341235089        1.8372602160
CE          4.2694288526        1.9364486802        1.8316453352
HE2         4.1618800086        2.0403614365        0.7475084314
HE3         3.9375063891        2.8726313038        2.2911509436
NZ          5.6955252678        1.6869788197        2.1750987932
HZ1         5.8226437866        1.6064684810        3.1748282132
HZ2         6.0329799532        0.8357769480        1.7466788874
HZ3         6.2817815169        2.4452980221        1.8526242416
C           0.0859501942       -2.3315875802        2.7035920728
O           0.1260332710       -2.5021320949        3.9270387896
N          -0.8093162340       -2.9635400140        1.9327199978
H          -0.7804372699       -2.7755233627        0.9374042599
CH3        -1.8220203747       -3.8983637574        2.4147455891
HH31       -2.4804532866       -3.4004394956        3.1286810769
HH32       -1.3430460760       -4.7495604404        2.9017684900
HH33       -2.4182732539       -4.2597850402        1.5754727941
          45
Energy of minimum      7=    -69.59143027     first found at step      329 after               115479 function calls
HH31       -4.9814935181        2.5154851374        4.9752541560
CH3        -3.9405806422        2.2288497130        4.8285943303
HH32       -3.3076635145        2.8067691794        5.5016442908
HH33       -3.6538204898        2.4325761713        3.7973739170
C          -3.7810300239        0.7475230894        5.1143906946
O          -3.0200076981        0.3563809058        5.9982336644
N          -4.4869154477       -0.0887740170        4.3551835635
H          -5.1254805857        0.3049066878        3.6760559189
CA         -4.5516384912       -1.5502551292        4.5580186394
HA         -4.8513582799       -1.7476221940        5.5881044661
CB         -5.6248400321       -2.1539720097        3.6361269596
HB2        -5.7237636721       -3.2190672396        3.8556469364
HB3        -5.3032239530       -2.0440579048        2.5982133935
OG         -6.8893937351       -1.5159947815        3.8098181870
HG         -7.5487635109       -1.9438125321        3.2193544107
C          -3.2139530793       -2.2876310997        4.3335791218
O          -3.0555243107       -3.4339838815        4.7625177138
N          -2.2290719322       -1.6348068126        3.7002890743
H          -2.4294501669       -0.7026035229        3.3623174579
CA         -0.8664885893       -2.1584994066        3.5010616430
HA         -0.9227048641       -3.2366744185        3.3399283880
CB         -0.2657904990       -1.5191229043        2.2325246803
HB2         0.7619227037       -1.8689101196        2.1176351426
HB3        -0.2465273859       -0.4348446893        2.3544575841
CG         -1.0468120178       -1.8914160188        0.9580979555
HG2        -1.1293468406       -2.9779094111        0.9032418269
HG3        -2.0540741326       -1.4753113654        1.0059568620
CD         -0.3668118373       -1.3971508414       -0.3281583108
HD2         0.6429784320       -1.8093329212       -0.3799160221
HD3        -0.9346248294       -1.7762140222       -1.1801560153
CE         -0.3074307156        0.1368926831       -0.4041669864
HE2        -1.3230190346        0.5337738849       -0.3100769212
HE3         0.2798238240        0.5136673983        0.4385228785
NZ          0.2972865162        0.6023255581       -1.6815928276
HZ1         0.3302930176        1.6123895891       -1.7189291967
HZ2        -0.2386310514        0.2842436391       -2.4776375952
HZ3         1.2432130774        0.2608398817       -1.7850688619
C           0.0591421534       -1.9614940767        4.7265671249
O           1.1764122051       -2.4897316359        4.7452112625
N          -0.3867105110       -1.2195592009        5.7493271137
H          -1.3141935466       -0.8204968346        5.6639309151
CH3         0.3585212931       -0.9418640447        6.9737676148
HH31        1.2896111214       -0.4247997237        6.7352920624
HH32       -0.2388910237       -0.3098783979        7.6327120329
HH33        0.5887080179       -1.8751134035        7.4906846567
          45
Energy of minimum      8=    -69.55252318     first found at step      155 after                53425 function calls
HH31       -2.7140893675       -2.6956553256        0.2172334768
CH3        -3.4024117225       -2.2924076022        0.9593977182
HH32       -3.3341595421       -1.2047915573        0.9636839831
HH33       -4.4192833630       -2.5902780365        0.7055667258
C          -3.0448875885       -2.8375431502        2.3291566323
O          -2.7321923594       -2.0786312963        3.2454759084
N          -3.0709889446       -4.1616053329        2.4730098562
H          -3.3804252212       -4.7223796610        1.6894549122
CA         -2.8583483343       -4.8683721333        3.7524928668
HA         -3.5622061820       -4.4784433583        4.4890209993
CB         -3.1538604663       -6.3671054704        3.5726672614
HB2        -2.4061932816       -6.7982513779        2.9034544064
HB3        -3.0762890068       -6.8634951726        4.5422007755
OG         -4.4558637832       -6.5866422934        3.0316020973
HG         -4.6110147754       -7.5540608337        2.9508185317
C          -1.4451820107       -4.6948005475        4.3494109381
O          -1.2358692074       -4.9442174466        5.5397674741
N          -0.4750806721       -4.2258534195        3.5517935652
H          -0.7089607548       -4.0631688305        2.5815003781
CA          0.8861202817       -3.8821879966        3.9963036638
HA          1.2101724113       -4.6429776533        4.7089580698
CB          1.8402139857       -3.9545726784        2.7859715854
HB2         2.8627140919       -3.8522461964        3.1521808707
HB3         1.7484460043       -4.9417388614        2.3286060027
CG          1.5748961337       -2.8768661586        1.7151101366
HG2         0.5370734902       -2.9434314124        1.3868304708
HG3         1.7325696722       -1.8863630388        2.1439173302
CD          2.4725171587       -3.0304732364        0.4772740917
HD2         2.1578440666       -2.2934327114       -0.2643000204
HD3         2.3279855760       -4.0258643125        0.0521634797
CE          3.9593963243       -2.8140500900        0.8021730804
HE2         4.2800389965       -3.5677946407        1.5274367312
HE3         4.0792947322       -1.8298674313        1.2656810837
NZ          4.8087449050       -2.9017308806       -0.4164550340
HZ1         4.5471198281       -2.2009172525       -1.0965206581
HZ2         4.7277432194       -3.8089322979       -0.8552222873
HZ3         5.7834323185       -2.7576519481       -0.1884835405
C           0.9898203185       -2.5322925752        4.7474308014
O           2.0407892060       -2.2278416658        5.3214309081
N          -0.0785543260       -1.7241001957        4.7527353650
H          -0.9032975200       -2.0401086753        4.2556631993
CH3        -0.1429817479       -0.4220946494        5.4097520698
HH31        0.6168505161        0.2430789291        4.9958151528
HH32       -1.1269740101        0.0217866600        5.2509156267
HH33        0.0256134493       -0.5361292148        6.4819924142
          45
Energy of minimum      9=    -69.52933536     first found at step      143 after                49086 function calls
HH31       -5.4081474835       -3.3874400431        1.6606240641
CH3        -5.6835647995       -3.2444033702        2.7050713031
HH32       -5.9609332057       -2.2030863984        2.8673140456
HH33       -6.5309703079       -3.8861771221        2.9442808374
C          -4.5086518624       -3.6099559855        3.5922781333
O          -4.0093413454       -2.7778658760        4.3483146612
N          -4.0467608396       -4.8554330700        3.4925645345
H          -4.5345036832       -5.4995892285        2.8831506149
CA         -2.9862076068       -5.4252269053        4.3483603171
HA         -3.2740785820       -5.2993150264        5.3929719177
CB         -2.8569729428       -6.9340548075        4.0788662663
HB2        -2.4858021744       -7.0823296468        3.0625122149
HB3        -2.1320896467       -7.3588974583        4.7763398748
OG         -4.1071791117       -7.6054100420        4.2286052712
HG         -3.9767899731       -8.5664867456        4.0679469428
C          -1.6045294100       -4.7567322052        4.1822215389
O          -0.7328898376       -4.9041492040        5.0432935965
N          -1.4014821112       -3.9830050832        3.1063445376
H          -2.1505985486       -3.9217838580        2.4299146906
CA         -0.1931784592       -3.1754980460        2.8681385818
HA          0.6722700689       -3.7608812159        3.1843670360
CB         -0.0472360991       -2.9298303372        1.3519472622
HB2         0.9095808423       -2.4362324589        1.1713673562
HB3        -0.0207718366       -3.8983171271        0.8502429214
CG         -1.1724497366       -2.0670527873        0.7453339054
HG2        -1.2240202026       -1.1184920445        1.2808225152
HG3        -2.1307463671       -2.5751468353        0.8606566353
CD         -0.9508765867       -1.7568568198       -0.7433968347
HD2        -1.7352531633       -1.0701363680       -1.0679683107
HD3         0.0122030858       -1.2566557145       -0.8645245433
CE         -0.9945556301       -3.0202192476       -1.6181848802
HE2        -0.1951330553       -3.6987958093       -1.3059667488
HE3        -1.9496543853       -3.5292297578       -1.4553407331
NZ         -0.8379576883       -2.6965093996       -3.0621308766
HZ1         0.0456126949       -2.2390248217       -3.2414246351
HZ2        -0.8683215982       -3.5355718971       -3.6258758906
HZ3        -1.5769573345       -2.0857232678       -3.3829457627
C          -0.1315457165       -1.8635210940        3.6881647514
O           0.9093621603       -1.1979018613        3.7055579788
N          -1.2237408001       -1.4854620953        4.3656007299
H          -2.0412748635       -2.0807759583        4.2997196640
CH3        -1.3297816331       -0.2798175943        5.1818235239
HH31       -2.3294311705       -0.2151014975        5.6142678089
HH32       -0.5956156988       -0.3094373247        5.9888209162
HH33       -1.1517045586        0.6041845752        4.5670271349
          45
Energy of minimum     10=    -69.46504515     first found at step       84 after                28927 function calls
HH31       -2.6765676801       -0.5466096982        2.2526715558
CH3        -2.4058935285        0.4101180876        2.6982631035
HH32       -1.3208264726        0.5103435936        2.7101816841
HH33       -2.8375559675        1.2168112253        2.1066191246
C          -2.9464552931        0.4790285419        4.1139287656
O          -2.1870120806        0.6252974291        5.0705322829
N          -4.2649218722        0.3563542967        4.2586010983
H          -4.8326603528        0.2743428056        3.4244897760
CA         -4.9834034159        0.5019795647        5.5404826288
HA         -4.7117631973        1.4590722852        5.9883074683
CB         -6.5011283426        0.5106072344        5.2824878174
HB2        -6.8027440718       -0.4834515948        4.9464573648
HB3        -7.0251638879        0.7261467360        6.2159972496
OG         -6.8816776494        1.4640384180        4.2896269253
HG         -6.7769657321        2.3722100500        4.6506884406
C          -4.6515958937       -0.5855366554        6.5852886461
O          -4.9375534025       -0.4148786901        7.7736579999
N          -4.0149890079       -1.6897628958        6.1699503866
H          -3.8235320455       -1.7734451967        5.1800810759
CA         -3.5357680541       -2.7668669838        7.0534718785
HA         -4.2429655417       -2.8908623101        7.8756963994
CB         -3.4974563658       -4.0865775195        6.2564247432
HB2        -2.8410871973       -3.9690505555        5.3917965343
HB3        -3.0826546732       -4.8694549546        6.8942000296
CG         -4.8910816328       -4.5372930910        5.7862765833
HG2        -5.3104323630       -3.7930465902        5.1077955092
HG3        -5.5475941129       -4.6335948456        6.6525532547
CD         -4.8156526842       -5.8862344079        5.0586349964
HD2        -4.4049071324       -6.6381532990        5.7356318955
HD3        -4.1584064368       -5.7909421556        4.1918134856
CE         -6.2161844015       -6.3162734133        4.5996446028
HE2        -6.6231646010       -5.5450709537        3.9384334303
HE3        -6.8688994014       -6.3842584827        5.4753981262
NZ         -6.1884195964       -7.6237507365        3.8904366359
HZ1        -5.6047931007       -7.5808557447        3.0661734370
HZ2        -7.1170646851       -7.8934030798        3.5947442162