          52
Energy of minimum      1=    -43.37767556     first found at step      958 after               597884 function calls
HH31        0.2009939672       -3.9390543263       -1.7937188236
CH3         0.9511234158       -3.2398622327       -1.4263512250
HH32        1.7293987415       -3.7865146620       -0.8953552364
HH33        1.3902339423       -2.7012617689       -2.2653427255
C           0.2975884094       -2.2587705134       -0.4837133203
O           0.3256143069       -1.0557781265       -0.7342192485
N          -0.2829979289       -2.7700136742        0.6031283056
H          -0.2508232934       -3.7740467324        0.7122426605
CA         -1.0163134998       -2.0070695333        1.6257994806
HA         -1.1266037076       -2.6711030489        2.4847586361
CB         -2.4357772774       -1.7198991578        1.1080259728
HB1        -2.9165419747       -2.6523669797        0.8094573248
HB2        -3.0316414700       -1.2561521625        1.8951788116
HB3        -2.3930794213       -1.0501872764        0.2494594779
C          -0.2597093271       -0.7669031980        2.1693266799
O          -0.8487730624        0.2933289038        2.4010807585
N           1.0665505187       -0.8745893914        2.3212425100
H           1.4916546408       -1.7685600747        2.1176986460
CA          1.9421140303        0.2059710612        2.7956759516
HA          1.4974366754        0.6386954975        3.6937325769
CB          3.2861052139       -0.4210538210        3.1894007486
HB1         3.9403291895        0.3448526737        3.6083225103
HB2         3.7671776436       -0.8586315642        2.3130673834
HB3         3.1291983763       -1.1960022077        3.9412096329
C           2.1312823174        1.3607235579        1.7810855446
O           2.5866050163        2.4447286941        2.1585875643
N           1.7703683088        1.1446296629        0.5098931197
H           1.4237227612        0.2216691154        0.2736535214
CA          1.8491054308        2.1094484105       -0.5931338184
HA          2.2596728270        3.0472693774       -0.2161692329
CB          2.8370686712        1.5551061665       -1.6303586735
HB1         2.9874046743        2.2843236745       -2.4273550540
HB2         3.7985874437        1.3539233543       -1.1559613856
HB3         2.4473938778        0.6309723441       -2.0601025904
C           0.4676823272        2.4590039468       -1.2029190377
O           0.3952995932        3.0890880560       -2.2631154218
N          -0.6330913987        2.0498837875       -0.5568546320
H          -0.5140647716        1.5552777329        0.3160081168
CA         -2.0063993498        2.3100601492       -1.0060042692
HA         -2.0413435522        3.3071209573       -1.4487405730
CB         -2.9127213571        2.3249927021        0.2321200428
HB1        -2.9273560680        1.3405790935        0.7002701340
HB2        -3.9287948142        2.5937222295       -0.0596294839
HB3        -2.5485957760        3.0605609431        0.9507929071
C          -2.5207303725        1.3249279627       -2.0846699891
O          -3.5480645587        1.5898575259       -2.7190497138
N          -1.8265308466        0.1993842316       -2.3083129766
H          -1.0029120074        0.0361476456       -1.7383795004
CH3        -2.1816765852       -0.8292053524       -3.2856848102
HH31       -2.2250036368       -0.3968134475       -4.2874027355
HH32       -1.4342145128       -1.6247892024       -3.2768679761
HH33       -3.1559517501       -1.2576210032       -3.0418065655
          52
Energy of minimum      2=    -42.69200649     first found at step      936 after               581528 function calls
HH31        0.7659196855       -3.9589015249       -0.7998303915
CH3         0.0027260599       -3.3382448086       -1.2676350979
HH32        0.3665030718       -2.9719487891       -2.2269610680
HH33       -0.9014763280       -3.9261984221       -1.4201330038
C          -0.3109477140       -2.1682729627       -0.3675959130
O          -0.1356283107       -1.0183592589       -0.7652182217
N          -0.7546547128       -2.4513360140        0.8566312506
H          -0.8653041603       -3.4244309440        1.1045180153
CA         -1.2017241874       -1.4418879927        1.8257576450
HA         -2.0153207311       -0.8721709035        1.3731685650
CB         -1.7611490093       -2.1784861313        3.0496572282
HB1        -0.9747684730       -2.7651300624        3.5275736827
HB2        -2.5726184618       -2.8414968799        2.7458076924
HB3        -2.1507672491       -1.4546948560        3.7670460865
C          -0.1040293148       -0.4314090572        2.2313330514
O          -0.4119598547        0.7176836037        2.5579986880
N           1.1744955027       -0.8214129357        2.1490709099
H           1.3572865917       -1.7827770046        1.8970758073
CA          2.3274187714        0.0568388871        2.3851355677
HA          2.1616023450        0.6022834443        3.3159983617
CB          3.5633366345       -0.8330779724        2.5713706470
HB1         4.4291451726       -0.2137944330        2.8101063197
HB2         3.7667733362       -1.3900827205        1.6552717409
HB3         3.3972580607       -1.5332063778        3.3915145759
C           2.5488091094        1.1097846716        1.2708900907
O           3.2538536730        2.0994666215        1.4902761231
N           1.9394690806        0.9161318178        0.0930470019
H           1.4028261157        0.0641212408       -0.0216400262
CA          2.0063299079        1.8051895773       -1.0739840170
HA          2.6221425949        2.6713122923       -0.8274166715
CB          2.7120816139        1.0400437935       -2.2032422970
HB1         2.8548042651        1.6953138023       -3.0633964495
HB2         2.1106597599        0.1808195893       -2.5043776232
HB3         3.6889471485        0.6940141695       -1.8625373630
C           0.6265552788        2.3660208368       -1.5033818176
O           0.5103404577        2.9956534624       -2.5598134119
N          -0.4267910916        2.1375195505       -0.7072272722
H          -0.2668116386        1.6412418037        0.1570157466
CA         -1.7956550366        2.5871038763       -0.9864970197
HA         -1.7554189306        3.6172153260       -1.3452563492
CB         -2.5687347200        2.5808638517        0.3387826476
HB1        -2.0560906376        3.2049598007        1.0722936742
HB2        -3.5718535568        2.9789042006        0.1799062884
HB3        -2.6479529017        1.5627378286        0.7224537074
C          -2.5263453096        1.7554813413       -2.0690774143
O          -3.5061231462        2.2313542324       -2.6534972310
N          -2.0652189079        0.5278137953       -2.3497592288
H          -1.2706852882        0.1943856082       -1.8131972778
CH3        -2.6341815683       -0.3795075185       -3.3459941820
HH31       -2.0681157791       -1.3128204419       -3.3655284124
HH32       -3.6743215299       -0.6027831524       -3.0999276346
HH33       -2.5946356879        0.0781721387       -4.3365757205
          52
Energy of minimum      3=    -42.60648796     first found at step      973 after               605983 function calls
HH31       -0.1846147296       -4.1459532263       -1.6572258528
CH3         0.6641290221       -3.5157006687       -1.3946475205
HH32        1.4162093459       -4.1132076512       -0.8809717272
HH33        1.0936471421       -3.0863358026       -2.2990618447
C           0.1976277138       -2.4073684735       -0.4819859588
O           0.3390819049       -1.2339008404       -0.8208261852
N          -0.3510538870       -2.7798655064        0.6760999958
H          -0.4199073064       -3.7722058119        0.8534440863
CA         -0.9165170005       -1.8764600144        1.6902336543
HA         -0.9978070490       -2.4546344381        2.6122959417
CB         -2.3497599841       -1.5018846766        1.2785817343
HB1        -2.9374581522       -2.4068390584        1.1191870786
HB2        -2.8200072662       -0.9136285724        2.0676125590
HB3        -2.3352678313       -0.9200561451        0.3578149606
C          -0.0029393581       -0.6746568150        2.0410446323
O          -0.4453244062        0.4774496209        2.0792550747
N           1.2962070311       -0.9434309606        2.2348717022
H           1.5745970013       -1.9140811493        2.1846998616
CA          2.3599710770        0.0411633505        2.4931057698
HA          3.3010928175       -0.5042443064        2.4049942962
CB          2.2691957544        0.5129170470        3.9542848637
HB1         3.1420502948        1.1176184316        4.2033279197
HB2         2.2407994844       -0.3493222673        4.6217822887
HB3         1.3690519718        1.1109594172        4.1007173852
C           2.4693782141        1.1858817613        1.4496737420
O           2.9697308033        2.2733597770        1.7560679961
N           1.9977634514        0.9476131723        0.2190650503
H           1.6024456755        0.0316926274        0.0388305240
CA          2.0252556855        1.8770998364       -0.9158476801
HA          2.5135910700        2.8019003321       -0.6054369717
CB          2.8918046229        1.2454868700       -2.0158043556
HB1         3.0099474158        1.9452493634       -2.8440262195
HB2         2.4208242181        0.3325159201       -2.3835343751
HB3         3.8792661689        1.0062555433       -1.6186350651
C           0.6172006798        2.2849582754       -1.4179775695
O           0.4899434822        2.8758662366       -2.4956011215
N          -0.4469381605        1.9704541065       -0.6659977923
H          -0.2881119361        1.5033612503        0.2184972737
CA         -1.8337853267        2.2997356518       -1.0204392022
HA         -1.8390500084        3.2695519469       -1.5211929113
CB         -2.6358179065        2.4550810589        0.2784663811
HB1        -3.6467008792        2.7933449606        0.0475281527
HB2        -2.1584400640        3.1930724368        0.9246257354
HB3        -2.6937807999        1.5012289878        0.8021926360
C          -2.4971621902        1.2953940697       -1.9952666766
O          -3.5700149340        1.5828988047       -2.5378517395
N          -1.8797618182        0.1285741922       -2.2328741207
H          -1.0124918218       -0.0517727529       -1.7381233046
CH3        -2.3771774456       -0.9217049881       -3.1210561657
HH31       -1.6659484907       -1.7492362913       -3.1536922478
HH32       -3.3370574182       -1.2953753194       -2.7588024830
HH33       -2.5079158781       -0.5288193127       -4.1314222052
          52
Energy of minimum      4=    -42.18920900     first found at step      190 after               106321 function calls
HH31        2.2274511697       -2.9662788478       -1.0887248798
CH3         1.5825312082       -3.2760689925       -0.2688129191
HH32        2.1166134861       -3.9932389685        0.3535425024
HH33        0.6798812236       -3.7406926104       -0.6631995071
C           1.2012928193       -2.0736259130        0.5645035566
O           1.4501743670       -0.9365047418        0.1623802566
N           0.5947506111       -2.3297475971        1.7230844439
H           0.4183480750       -3.2954618984        1.9570193523
CA          0.1867502156       -1.3097216161        2.6940551744
HA          1.0671469576       -0.7144896243        2.9449943535
CB         -0.2810262210       -2.0145675804        3.9749241482
HB1         0.5159536257       -2.6521592414        4.3606988398
HB2        -0.5342402614       -1.2732497860        4.7342703375
HB3        -1.1617352963       -2.6243461510        3.7663306991
C          -0.8868723272       -0.3419949779        2.1477605601
O          -1.6605759642       -0.6782073051        1.2451443067
N          -0.9294116541        0.8790486013        2.6928452373
H          -0.2944252845        1.0887079881        3.4512058699
CA         -1.8570219475        1.9346211073        2.2655847231
HA         -2.8641462916        1.5154661510        2.2251200650
CB         -1.8442054823        3.0344493485        3.3352310152
HB1        -2.5675798290        3.8083289817        3.0743844936
HB2        -0.8518194511        3.4835687074        3.4011586580
HB3        -2.1162275612        2.6136090926        4.3044094265
C          -1.5402326784        2.5040715399        0.8620308635
O          -2.4168700432        3.0860883396        0.2162549235
N          -0.3061474475        2.3207008202        0.3735881053
H           0.3700205501        1.8590115927        0.9649057207
CA          0.1463544145        2.7694052395       -0.9474097508
HA         -0.3111609352        3.7366099607       -1.1633890636
CB          1.6652977119        2.9753661421       -0.8734888590
HB1         2.0293635669        3.3720155677       -1.8222712351
HB2         1.9060078803        3.6865011363       -0.0818308161
HB3         2.1637000466        2.0258940590       -0.6707903448
C          -0.2407494878        1.8159774529       -2.1022969553
O          -0.1505198757        2.2001717711       -3.2726177469
N          -0.6587636002        0.5795104593       -1.7994826266
H          -0.7185737774        0.3210572068       -0.8245098531
CA         -1.0283380215       -0.4323462274       -2.7962207603
HA         -1.6732454119        0.0363149411       -3.5418211699
CB         -1.8444787238       -1.5202546748       -2.0867890881
HB1        -2.7154804558       -1.0755985294       -1.6032963825
HB2        -1.2319120243       -2.0206459095       -1.3361636765
HB3        -2.1854363433       -2.2568214485       -2.8154741503
C           0.1813047687       -1.0332465687       -3.5524132336
O           0.0172750141       -1.5614782643       -4.6577429590
N           1.3924031531       -0.9460493310       -2.9825487213
H           1.4382876555       -0.5393871049       -2.0559401679
CH3         2.6401992875       -1.4193974999       -3.5820800094
HH31        2.5768247794       -2.4905283094       -3.7847669938
HH32        2.8289367497       -0.8926428622       -4.5197739022
HH33        3.4743270603       -1.2377436250       -2.9015718609
          52
Energy of minimum      5=    -42.03251132     first found at step      956 after               596495 function calls
HH31        1.3766371957       -3.2209169734       -1.5550391041
CH3         0.8719914339       -3.5729289321       -0.6560218327
HH32        1.5974289277       -4.0323547233        0.0141836180
HH33        0.1119191743       -4.3047112952       -0.9267896529
C           0.2142863698       -2.4076249113        0.0424155144
O           0.3054976628       -1.2772220171       -0.4318712816
N          -0.4419272712       -2.6804217019        1.1715709709
H          -0.4590512664       -3.6451076450        1.4718729101
CA         -1.1878284212       -1.7096202195        1.9880940651
HA         -1.3734664924       -2.1925080216        2.9489881530
CB         -2.5636518020       -1.4710962040        1.3428633140
HB1        -3.0763787664       -2.4236635304        1.2027848689
HB2        -2.4448252698       -0.9849248647        0.3748285108
HB3        -3.1728251967       -0.8384889376        1.9898406401
C          -0.3983338773       -0.4194368179        2.3297411422
O          -0.9395815698        0.6904165417        2.2988556149
N           0.9086110474       -0.5511764516        2.5927322741
H           1.2938602760       -1.4855007134        2.6003443086
CA          1.8147349190        0.5630559404        2.9064807215
HA          1.3719772723        1.1475562664        3.7150579669
CB          3.1313379658       -0.0350745669        3.4191972336
HB1         3.8067305999        0.7671993460        3.7197898462
HB2         3.6071028152       -0.6242947067        2.6334657915
HB3         2.9389438315       -0.6723507871        4.2836276946
C           2.0578722721        1.5325502958        1.7236692126
O           2.5014490827        2.6655268679        1.9339190557
N           1.7418329147        1.1078206303        0.4942548254
H           1.4081657515        0.1549604735        0.4020145419
CA          1.7914263731        1.8967596978       -0.7412764511
HA          2.1294315063        2.9067049784       -0.5045577505
CB          2.8395435885        1.2600636227       -1.6662091105
HB1         3.7987600802        1.1963218214       -1.1506285718
HB2         2.9649752185        1.8701242069       -2.5615319370
HB3         2.5200567942        0.2582167991       -1.9573551126
C           0.3995152258        2.0523119313       -1.4066304275
O           0.3076863533        2.3793032446       -2.5943621649
N          -0.6835545595        1.8020089790       -0.6537720987
H          -0.5270927252        1.5645214228        0.3171795358
CA         -2.0797562680        1.7929032813       -1.1135081169
HA         -2.6615425566        1.3746595449       -0.2907269799
CB         -2.5716602826        3.2394750790       -1.2912660279
HB1        -2.3706333316        3.8139472794       -0.3860706506
HB2        -3.6466304437        3.2438396899       -1.4753475260
HB3        -2.0652142234        3.7085896605       -2.1353558507
C          -2.3634394948        0.8528917535       -2.3163051863
O          -3.2540500436        1.1181086442       -3.1326164528
N          -1.6094316752       -0.2501934871       -2.4348576954
H          -0.9023127963       -0.4104768459       -1.7243701683
CH3        -1.7318479527       -1.2459724766       -3.4989167554
HH31       -2.7324752204       -1.6829409516       -3.4911221094
HH32       -1.5559117149       -0.7799620649       -4.4705818575
HH33       -0.9983514305       -2.0408681519       -3.3506814576
          52
Energy of minimum      6=    -42.02609887     first found at step      576 after               349814 function calls
HH31        3.1710653617       -2.0098250405        3.3963741024
CH3         2.8874677624       -1.8356257793        2.3592546813
HH32        3.7760293176       -1.6173422818        1.7680750543
HH33        2.3974808042       -2.7248732436        1.9654299186
C           1.9347214368       -0.6633707923        2.2964832352
O           2.2749983819        0.3820207169        1.7429963018
N           0.7407415595       -0.8351822261        2.8629344049
H           0.5411607797       -1.7298416873        3.2851209671
CA         -0.2953391976        0.2003584737        2.9289996245
HA          0.1344896066        1.0747142693        3.4218988094
CB         -1.4478168775       -0.3108873730        3.8038585772
HB1        -1.9023917747       -1.1914540001        3.3466817548
HB2        -1.0747748086       -0.5709838993        4.7956231611
HB3        -2.2058663873        0.4669687222        3.9070253650
C          -0.7896306120        0.6431875576        1.5348489984
O          -0.8430400566       -0.1559853306        0.5949800127
N          -1.1534619756        1.9247763490        1.4003465792
H          -1.1006869948        2.5127527056        2.2212980386
CA         -1.6378558563        2.5552454848        0.1615557908
HA         -1.6145618808        3.6319773222        0.3380516072
CB         -3.1144005360        2.1772927295       -0.0459715751
HB1        -3.6858447900        2.4051264316        0.8548111226
HB2        -3.5305112721        2.7488799191       -0.8765163504
HB3        -3.2019099198        1.1129651045       -0.2667351252
C          -0.7350630572        2.3334116417       -1.0818422710
O          -1.2202164861        2.2798786040       -2.2165679954
N           0.5790761370        2.1683946309       -0.8774017308
H           0.9248014923        2.2329264560        0.0700120086
CA          1.5544003891        1.8990770099       -1.9409865890
HA          1.3321707579        2.5524711429       -2.7867105793
CB          2.9454388129        2.2749466883       -1.4143330531
HB1         2.9509134267        3.3155823382       -1.0868795951
HB2         3.2175055614        1.6306055958       -0.5774253530
HB3         3.6831756758        2.1538579146       -2.2086904406
C           1.5195039248        0.4449899394       -2.4701698436
O           2.0099615851        0.1831438324       -3.5731299527
N           0.9333126806       -0.4918112085       -1.7128182674
H           0.5602684044       -0.2033608775       -0.8167345520
CA          0.7660805301       -1.9026009802       -2.0836568374
HA          1.3733414235       -2.1230563882       -2.9629891305
CB          1.3001300129       -2.7578966393       -0.9280915014
HB1         0.7076880032       -2.5842376261       -0.0285383793
HB2         1.2389518865       -3.8137136123       -1.1952794398
HB3         2.3427610688       -2.5047461523       -0.7308179467
C          -0.6926205819       -2.2726555629       -2.4386189493
O          -0.9198375989       -3.1562583861       -3.2722281423
N          -1.6810356193       -1.5963360898       -1.8354003308
H          -1.4147718839       -0.9247771441       -1.1233447652
CH3        -3.1094488806       -1.7944660169       -2.0796512940
HH31       -3.3832626341       -2.8336487389       -1.8858569638
HH32       -3.6938272756       -1.1480683824       -1.4222346949
HH33       -3.3494598263       -1.5525461206       -3.1170384664
          52
Energy of minimum      7=    -41.87641904     first found at step      719 after               435826 function calls
HH31       -3.0632828635       -3.1995651426       -0.4031741324
CH3        -3.1439517264       -2.1365816672       -0.1793264003
HH32       -3.8090860392       -1.9932458477        0.6713075825
HH33       -3.5403962143       -1.6096949720       -1.0465240251
C          -1.7766182673       -1.5942666811        0.1585767839
O          -1.2878110571       -0.6868874812       -0.5124297879
N          -1.1589557391       -2.1319255392        1.2104226298
H          -1.6335046913       -2.8715713911        1.7088210868
CA          0.2093210733       -1.7939103367        1.6231442055
HA          0.8838123750       -2.0360114600        0.7998708876
CB          0.5788155042       -2.6824331828        2.8177372033
HB1         0.4898765974       -3.7338944161        2.5404167138
HB2         1.6095230972       -2.4850669038        3.1161668482
HB3        -0.0817751616       -2.4741121463        3.6610417887
C           0.4023184843       -0.2971139471        1.9540458271
O           1.4677631584        0.2593294664        1.6782997503
N          -0.6418793038        0.3705233066        2.4662017603
H          -1.4698385373       -0.1688713127        2.6794008547
CA         -0.7193150279        1.8257758134        2.6720075039
HA         -1.7650965054        2.0444601837        2.8945117831
CB          0.0806873910        2.2056141340        3.9295894486
HB1         1.1470292613        2.0565465248        3.7565855477
HB2        -0.0959299224        3.2527559695        4.1782954720
HB3        -0.2366730957        1.5888455840        4.7714150842
C          -0.3945999953        2.6753966197        1.4128497611
O           0.0554755751        3.8209566727        1.5213761924
N          -0.6079353050        2.1093085360        0.2168214663
H          -0.9996909780        1.1744167475        0.2051864937
CA         -0.3649217233        2.7271429104       -1.0922789663
HA          0.0656402174        3.7181930379       -0.9420273775
CB         -1.7252532536        2.9135194918       -1.7813096051
HB1        -1.5957364745        3.4512399775       -2.7213539069
HB2        -2.1765766358        1.9410879014       -1.9845257182
HB3        -2.3904784120        3.4917308594       -1.1385005330
C           0.6530217100        1.9477338873       -1.9640926284
O           0.7530572050        2.1890330001       -3.1716422946
N           1.4030421628        1.0032097938       -1.3789606604
H           1.3110884133        0.8713165748       -0.3798375790
CA          2.4089194345        0.1947785215       -2.0807347116
HA          2.9561177861        0.8462337331       -2.7646017541
CB          3.4083847762       -0.3279816615       -1.0406097359
HB1         3.8249968503        0.5046292488       -0.4718945017
HB2         4.2226920070       -0.8499952498       -1.5448338079
HB3         2.9134770680       -1.0207813202       -0.3592192809
C           1.8223444567       -0.9587585794       -2.9314163909
O           2.5224935081       -1.5055900780       -3.7909399973
N           0.5541825974       -1.3362347959       -2.7124666562
H           0.0408176166       -0.8536665289       -1.9823070041
CH3        -0.1420635071       -2.4040859866       -3.4299678120
HH31       -0.1674722124       -2.1836559819       -4.4991202809
HH32       -1.1667234162       -2.4920595176       -3.0636376657
HH33        0.3706677388       -3.3558163689       -3.2763594610
          52
Energy of minimum      8=    -41.82554517     first found at step      572 after               347857 function calls
HH31        4.0513001817       -1.9572533642        0.8098257419
CH3         3.2834738364       -2.2667611248        1.5178574224
HH32        3.7522149875       -2.6164748803        2.4367680261
HH33        2.6920312168       -3.0722788096        1.0848099442
C           2.3822755693       -1.0949484462        1.8350104296
O           2.6337506943        0.0206795212        1.3797500034
N           1.3312359049       -1.3466834204        2.6146708492
H           1.1963983376       -2.2936886327        2.9362443982
CA          0.3553003228       -0.3350911244        3.0325857738
HA          0.8996217435        0.4791281534        3.5153258850
CB         -0.5809836635       -0.9567474849        4.0776465982
HB1        -1.2818530547       -0.2033525372        4.4402343725
HB2         0.0002100430       -1.3302354872        4.9221313191
HB3        -1.1430110837       -1.7802389885        3.6338347333
C          -0.4299326666        0.2658143764        1.8456150160
O          -0.6577731630       -0.3997562590        0.8304336620
N          -0.8470249603        1.5322849387        1.9757952595
H          -0.6429055078        2.0041752402        2.8465646704
CA         -1.5841166242        2.2989633226        0.9583897538
HA         -1.5492867553        3.3430413306        1.2743947514
CB         -3.0640213011        1.8797240772        0.9883498435
HB1        -3.6471789900        2.5334875308        0.3385233720
HB2        -3.4521675498        1.9611404548        2.0044971685
HB3        -3.1702621862        0.8498511305        0.6449354719
C          -0.9356361390        2.2809300206       -0.4508264430
O          -1.6287649625        2.2368266003       -1.4720457926
N           0.4024114941        2.2540048249       -0.5169573855
H           0.9216695581        2.2860578107        0.3494448970
CA          1.1690678421        2.2005685963       -1.7686008685
HA          0.7893041633        2.9764466883       -2.4359892721
CB          2.6306803451        2.5341775201       -1.4432472857
HB1         3.2126842818        2.5698804122       -2.3651782377
HB2         3.0529707877        1.7720185355       -0.7870645620
HB3         2.6905251741        3.5072284104       -0.9535732185
C           1.0478522996        0.8541843309       -2.5226202514
O           1.3293327071        0.7943754283       -3.7234965096
N           0.6021786411       -0.2106390581       -1.8437888042
H           0.4027586860       -0.0904839726       -0.8576836890
CA          0.3173876122       -1.5325995682       -2.4134990065
HA          0.7880571812       -1.6037739268       -3.3952378999
CB          0.9775340829       -2.5862239006       -1.5131285006
HB1         2.0434789305       -2.3754049194       -1.4174779174
HB2         0.5160164730       -2.5765898013       -0.5249081925
HB3         0.8555229902       -3.5768504863       -1.9527467533
C          -1.1940517767       -1.7988030352       -2.6339316948
O          -1.5720105557       -2.8850754225       -3.0874997418
N          -2.0657768898       -0.8265188084       -2.3232720038
H          -1.6866697323        0.0414279051       -1.9670766945
CH3        -3.5192812063       -0.9222999182       -2.4559206468
HH31       -3.7898777106       -1.1176838846       -3.4956253347
HH32       -3.9002051608       -1.7335431107       -1.8321200627
HH33       -3.9844544481        0.0135832123       -2.1401225939
          52
Energy of minimum      9=    -41.75778007     first found at step      548 after               332419 function calls
HH31        3.5384083643       -2.2726399770       -0.1609634097
CH3         3.9458391523       -1.2904245158        0.0743570298
HH32        4.2745638411       -0.8027781479       -0.8426090773
HH33        4.7910039025       -1.4036910131        0.7520541937
C           2.8829499223       -0.4494270480        0.7442283654
O           2.5997725511        0.6619856381        0.2977396922
N           2.2933576743       -0.9780652129        1.8159631525
H           2.5779665313       -1.9021668042        2.1051271286
CA          1.2824824617       -0.2885537122        2.6237691136
HA          1.7157002182        0.6515152415        2.9713928594
CB          0.9718802216       -1.1444170431        3.8591089288
HB1         0.5410921272       -2.0995895669        3.5539447878
HB2         1.8866130455       -1.3256363193        4.4255591860
HB3         0.2600675731       -0.6222834416        4.5002582131
C           0.0035802167        0.0514570241        1.8279004328
O          -0.4083228454       -0.6867862478        0.9270889399
N          -0.6287258201        1.1849544701        2.1509905727
H          -0.2512051238        1.7445102019        2.9035270292
CA         -1.8802069235        1.6378500065        1.5294833732
HA         -2.6277669662        0.8524107171        1.6557835938
CB         -2.3613533189        2.8785248193        2.2929886767
HB1        -3.3211744326        3.2070943695        1.8916635058
HB2        -2.4879512123        2.6393058051        3.3499556911
HB3        -1.6369559396        3.6881147391        2.1892129080
C          -1.7669879364        1.9201586178        0.0122173774
O          -2.7751464374        1.8754733662       -0.6986293921
N          -0.5533587934        2.1644796979       -0.5008128857