          52
Energy of minimum      1=    -43.37767556     first found at step      927 after               574790 function calls
HH31        0.2767916246        0.8478824552        4.1634913066
CH3        -0.3652195203        0.1371467163        3.6446710076
HH32       -1.3503295630        0.5770760479        3.4935563667
HH33       -0.4581512050       -0.7709111148        4.2390760924
C           0.2453482194       -0.2039779591        2.3071149632
O          -0.3749188444        0.0300992969        1.2721241519
N           1.4628263000       -0.7489707984        2.3272324318
H           1.8833574227       -0.9012653379        3.2333138189
CA          2.2219615241       -1.2015020661        1.1505332560
HA          3.2512314885       -1.3432269661        1.4843485741
CB          1.7031992724       -2.5862168321        0.7275859945
HB1         0.6754918241       -2.5092119418        0.3735221517
HB2         2.3280852187       -2.9892361008       -0.0704227915
HB3         1.7375371990       -3.2696238529        1.5770269434
C           2.3098211303       -0.1621399434        0.0025387921
O           2.2190115788       -0.5038075892       -1.1805989815
N           2.4291845314        1.1261819990        0.3483984124
H           2.5012189189        1.3436076579        1.3327074757
CA          2.4969711883        2.2426977582       -0.6045480597
HA          3.2300657416        1.9932598835       -1.3738641279
CB          3.0094047581        3.4738542585        0.1545021753
HB1         3.1342485953        4.3071707055       -0.5384010870
HB2         2.2968171087        3.7602218842        0.9297940920
HB3         3.9744311162        3.2531990727        0.6132142565
C           1.1610703118        2.5397095582       -1.3296580450
O           1.1545465357        3.2366159235       -2.3490562176
N           0.0414337606        2.0049487316       -0.8263385384
H           0.1258608161        1.4610070224        0.0250297405
CA         -1.3130845758        2.1475102283       -1.3728725810
HA         -1.2717499287        2.7722417229       -2.2662806925
CB         -2.1634719539        2.8872583061       -0.3294090321
HB1        -1.6928108324        3.8376489310       -0.0739067213
HB2        -3.1565019290        3.0875856500       -0.7335411107
HB3        -2.2600718311        2.2797050701        0.5717552829
C          -1.9404880650        0.8018302102       -1.8176950295
O          -3.1415277444        0.7366096358       -2.0996730071
N          -1.1499284671       -0.2790497262       -1.8742228816
H          -0.1714013910       -0.1627266020       -1.6514100452
CA         -1.5971621729       -1.6164402035       -2.2825984042
HA         -2.3313936231       -1.5051857481       -3.0825317874
CB         -0.3889179353       -2.3595199940       -2.8678954707
HB1         0.3675695997       -2.5138074235       -2.0982391626
HB2        -0.7055775680       -3.3296606302       -3.2529830369
HB3         0.0423461170       -1.7816005057       -3.6865279579
C          -2.2836035455       -2.4292985164       -1.1571646322
O          -2.9231282444       -3.4491337951       -1.4382073446
N          -2.1690408380       -1.9970068646        0.1072629803
H          -1.6138151425       -1.1630156719        0.2685126605
CH3        -2.7527858511       -2.6519786968        1.2775767879
HH31       -3.8369857559       -2.7209412897        1.1678793634
HH32       -2.5250742383       -2.0776856813        2.1776134006
HH33       -2.3426911357       -3.6579268742        1.3876642672
          52
Energy of minimum      2=    -42.69200649     first found at step      977 after               605611 function calls
HH31        0.1732799169        1.5019954862        3.8227257445
CH3        -0.6613267690        0.9649881205        3.3737543904
HH32       -1.1083520298        0.3025499874        4.1139375822
HH33       -1.4075582820        1.6765988169        3.0222411484
C          -0.1601196584        0.1445464358        2.2105851206
O          -0.5978255722        0.3443317703        1.0793728251
N           0.7754030854       -0.7669976093        2.4744361892
H           1.0833937008       -0.8627411517        3.4318179528
CA          1.3024169145       -1.7178295132        1.4863888692
HA          0.4665209697       -2.3003307241        1.0948226882
CB          2.2505144239       -2.6785061345        2.2155491381
HB1         2.6183768760       -3.4315271174        1.5170081037
HB2         3.0994624329       -2.1295259833        2.6264720655
HB3         1.7196403068       -3.1818477281        3.0249998037
C           1.9998647791       -1.0477929438        0.2801092200
O           1.9964055994       -1.6021340321       -0.8219976726
N           2.5371398691        0.1662446962        0.4560179339
H           2.5264356562        0.5542019059        1.3890289811
CA          3.1262386209        0.9770767943       -0.6172009628
HA          3.8062046514        0.3466955184       -1.1932010008
CB          3.9534992550        2.0908708078        0.0379564360
HB1         3.3046414658        2.7492352391        0.6179718098
HB2         4.4561770408        2.6767776292       -0.7328609803
HB3         4.7084235637        1.6560464687        0.6947783505
C           2.0845751945        1.5521577778       -1.6089018531
O           2.4484987930        1.9611691330       -2.7156799497
N           0.7987099849        1.5668470699       -1.2314817248
H           0.5819908277        1.2435039823       -0.2957772553
CA         -0.3342884575        2.0481931595       -2.0324036746
HA          0.0322209433        2.3804611684       -3.0047503766
CB         -0.9252809327        3.2715195510       -1.3161926409
HB1        -1.7197065551        3.7089746080       -1.9221090668
HB2        -0.1490713479        4.0227467098       -1.1637490233
HB3        -1.3350358609        2.9757855800       -0.3490839151
C          -1.3945818841        0.9553067548       -2.3223508273
O          -2.4726710598        1.2551649851       -2.8456094716
N          -1.1126474621       -0.3090032082       -1.9793540855
H          -0.2050761532       -0.4990822347       -1.5806244840
CA         -2.0191393219       -1.4469115018       -2.1725984203
HA         -2.4643338618       -1.3701477439       -3.1662613151
CB         -1.1755608021       -2.7278814955       -2.1332475203
HB1        -1.8086825653       -3.5904277072       -2.3456059180
HB2        -0.7268307008       -2.8517754552       -1.1466618962
HB3        -0.3870136198       -2.6781559617       -2.8856163397
C          -3.1841425814       -1.5078479684       -1.1544929388
O          -4.1965218241       -2.1669478171       -1.4164887406
N          -3.0621920322       -0.8294919652       -0.0040370987
H          -2.1928108456       -0.3293986239        0.1522951315
CH3        -4.0694883171       -0.7774027935        1.0552435429
HH31       -3.7105937159       -0.1584325705        1.8798377487
HH32       -4.9972858924       -0.3492840195        0.6702860052
HH33       -4.2718967666       -1.7825661525        1.4307023716
          52
Energy of minimum      3=    -42.18920900     first found at step      898 after               554421 function calls
HH31       -0.6098006735       -3.3140067248        1.8950396438
CH3         0.4600107463       -3.1340114764        1.8098777983
HH32        0.8528599622       -3.6465426737        0.9328520586
HH33        0.9572676293       -3.5113722663        2.7027592845
C           0.7202748700       -1.6505247959        1.6788882537
O          -0.2137748497       -0.8720714953        1.4833088130
N           1.9915818161       -1.2651827913        1.7842050203
H           2.6886256859       -1.9809080418        1.9267347282
CA          2.4478994902        0.1272069198        1.7319887360
HA          1.9036508745        0.6872565606        2.4952107628
CB          3.9381788146        0.1664455861        2.0977425086
HB1         4.0912356106       -0.2783927817        3.0822294618
HB2         4.5198680540       -0.3860337166        1.3578818126
HB3         4.2862348794        1.2001221386        2.1231554032
C           2.1733229264        0.8087876403        0.3727045609
O           2.0725456522        0.1536952479       -0.6699219622
N           2.0400160021        2.1399494968        0.3832736978
H           2.1653688049        2.6281009374        1.2597840763
CA          1.7362364208        2.9419356087       -0.8091112921
HA          2.4196195894        2.6478478570       -1.6079401468
CB          2.0093288529        4.4130247939       -0.4696311864
HB1         1.3385620626        4.7468019910        0.3238102903
HB2         3.0436202213        4.5335408809       -0.1438604618
HB3         1.8471400346        5.0299761766       -1.3546548158
C           0.2965476440        2.7394610112       -1.3391046474
O           0.0213811339        3.0186527235       -2.5098303028
N          -0.6166976947        2.2336906906       -0.4992553531
H          -0.3310793457        2.0517667273        0.4522394997
CA         -2.0125981105        1.9528969212       -0.8510305929
HA         -2.3676838971        2.7360512740       -1.5233665816
CB         -2.8416614500        2.0302890596        0.4380533311
HB1        -3.8981038119        1.8900393949        0.2049819403
HB2        -2.5254675018        1.2525630851        1.1352997022
HB3        -2.7133670149        3.0082169804        0.9045019819
C          -2.2189522914        0.6029089816       -1.5773837889
O          -3.2880925139        0.3706975625       -2.1504583565
N          -1.2241832076       -0.2944650447       -1.5564727573
H          -0.3692809153       -0.0485867560       -1.0772721974
CA         -1.2985780902       -1.6214596033       -2.1789492357
HA         -1.7155078958       -1.5100594889       -3.1815600051
CB          0.1311297562       -2.1584817710       -2.3220100753
HB1         0.5828334751       -2.2922614426       -1.3385800541
HB2         0.1121098365       -3.1194131570       -2.8377752816
HB3         0.7341331718       -1.4597889828       -2.9036831533
C          -2.2049841034       -2.6177805576       -1.4161146193
O          -2.6831845784       -3.5928872593       -2.0061819951
N          -2.4606659405       -2.3790371142       -0.1212259848
H          -1.9958347111       -1.5848665288        0.3022217697
CH3        -3.3308112736       -3.1924838391        0.7282697356
HH31       -3.3528392133       -2.7841013574        1.7404935909
HH32       -2.9616957531       -4.2193441948        0.7698761504
HH33       -4.3467391802       -3.1978623861        0.3279902351
          52
Energy of minimum      4=    -42.10838894     first found at step      802 after               500135 function calls
HH31        2.3870670425        1.2485873952        2.5270471540
CH3         2.2150810567        0.2242737058        2.1984901686
HH32        2.5516246669       -0.4662046376        2.9709729841
HH33        2.7688910149        0.0384943304        1.2800576880
C           0.7392177403        0.0177869481        1.9565973559
O           0.3396357555       -0.3046517002        0.8392531767
N          -0.0652751714        0.2185882359        3.0017762409
H           0.3769614149        0.4842337284        3.8706026446
CA         -1.5257274747        0.0292714760        3.0326344611
HA         -1.8694340692        0.4801295119        3.9649952191
CB         -1.8253413927       -1.4757870870        3.1368807813
HB1        -1.5410734358       -1.9781787764        2.2112453658
HB2        -1.2663298533       -1.9092308962        3.9672215850
HB3        -2.8900169555       -1.6317419564        3.3148895157
C          -2.3239410759        0.7586798688        1.9190954261
O          -3.4385526259        0.3543733235        1.5724878848
N          -1.7535270012        1.8164890825        1.3275827013
H          -0.8553383489        2.1199968228        1.6757018312
CA         -2.3243972719        2.5456019124        0.1880062082
HA         -3.3703696576        2.7653680826        0.4093369703
CB         -1.5762321126        3.8799997570        0.0659716458
HB1        -1.6508457556        4.4352069709        1.0022400990
HB2        -2.0193923890        4.4786761353       -0.7310837957
HB3        -0.5250318899        3.7014544970       -0.1663030792
C          -2.2981570951        1.7542431871       -1.1444194012
O          -2.9495894112        2.1595440610       -2.1123518847
N          -1.5614823874        0.6359338346       -1.2019387128
H          -1.0727501984        0.3590964175       -0.3575383380
CA         -1.5066098309       -0.2997544615       -2.3336695821
HA         -1.9625064325        0.1696852746       -3.2066726319
CB         -2.3552550514       -1.5246592164       -1.9597151423
HB1        -1.9117161364       -2.0392948301       -1.1058069586
HB2        -3.3678439897       -1.2102547704       -1.7029022597
HB3        -2.4080387714       -2.2128401123       -2.8042583091
C          -0.0685531034       -0.6911851572       -2.7580640865
O           0.1120300655       -1.5677024427       -3.6096070344
N           0.9604453102       -0.0673651425       -2.1696084126
H           0.7536291709        0.6474959896       -1.4875689161
CA          2.3733235976       -0.3646570773       -2.4336110316
HA          2.5004820656       -0.5314709901       -3.5047815384
CB          3.1921818788        0.8760006142       -2.0533727044
HB1         3.0937710647        1.0803908110       -0.9864397607
HB2         2.8420901911        1.7399816784       -2.6202112067
HB3         4.2441760693        0.7067544601       -2.2871738083
C           2.8892608939       -1.6330958999       -1.7113495269
O           3.9070798986       -2.2038294793       -2.1187644833
N           2.1997657045       -2.0865865256       -0.6539504348
H           1.3955003443       -1.5435868409       -0.3578664645
CH3         2.5445744820       -3.2692260649        0.1345939659
HH31        3.5402112882       -3.1540848538        0.5679177634
HH32        1.8219805056       -3.4022430576        0.9420956939
HH33        2.5343476662       -4.1587061362       -0.4986650260
          52
Energy of minimum      5=    -42.03251132     first found at step      951 after               590687 function calls
HH31        0.4655224303        1.9829540573        3.8292356883
CH3        -0.3471278838        1.3565898503        3.4634839808
HH32       -0.7312780079        0.7453992519        4.2792077155
HH33       -1.1454218591        1.9856505809        3.0712835938
C           0.1700349325        0.4561684846        2.3679895096
O          -0.3188727854        0.5171288672        1.2417873788
N           1.1622543187       -0.3737175631        2.6948171538
H           1.4886207079       -0.3462829237        3.6507595038
CA          1.7854777992       -1.3624074093        1.8006030365
HA          2.7101435205       -1.6784514571        2.2864723909
CB          0.8811558120       -2.6044935314        1.7262374914
HB1        -0.0633921657       -2.3525746220        1.2446363250
HB2         1.3764697281       -3.3911017758        1.1554700804
HB3         0.6804602750       -2.9763573690        2.7318885267
C           2.2244777590       -0.7954918407        0.4256545528
O           2.0504843449       -1.4351114080       -0.6165980842
N           2.7368174767        0.4421665693        0.4073681221
H           2.8518117072        0.9155329093        1.2928834400
CA          3.1771179292        1.1469006610       -0.8052727056
HA          3.8644760819        0.4963814304       -1.3491804417
CB          3.9532159017        2.3950565596       -0.3649765731
HB1         3.2947424214        3.0738406876        0.1796069789
HB2         4.3478891513        2.9104023134       -1.2417925980
HB3         4.7875794502        2.1074944796        0.2765232475
C           2.0280617007        1.5104119582       -1.7776961897
O           2.2778273771        1.7820978695       -2.9560022489
N           0.7771852896        1.4854924803       -1.3018568140
H           0.6576199946        1.2790239819       -0.3165348298
CA         -0.4539820843        1.6896121193       -2.0725603408
HA         -0.1939408473        1.8662577069       -3.1172840202
CB         -1.1379790106        2.9586174172       -1.5422719757
HB1        -1.4481674004        2.8097212579       -0.5068261972
HB2        -0.4467430157        3.8009762021       -1.5933314438
HB3        -2.0144438200        3.1897454797       -2.1488189463
C          -1.3780996026        0.4445368828       -2.0623854534
O          -2.5725951676        0.5504675792       -2.3590697524
N          -0.8373300792       -0.7311192803       -1.7047707073
H           0.1536099490       -0.7414974623       -1.5009132349
CA         -1.5545866241       -2.0027602969       -1.5336231612
HA         -0.8433981221       -2.6852555227       -1.0658806043
CB         -1.8754655689       -2.6015101031       -2.9137219893
HB1        -2.6237922471       -1.9937601207       -3.4233207226
HB2        -0.9700286161       -2.6418121858       -3.5206556623
HB3        -2.2614726080       -3.6147066527       -2.7958355604
C          -2.7544465904       -1.9466225607       -0.5497516032
O          -3.7348984638       -2.6851623027       -0.7019501823
N          -2.6866580895       -1.0712583577        0.4644090239
H          -1.8488651545       -0.5022991375        0.5343289513
CH3        -3.7176037339       -0.8788097957        1.4836724156
HH31       -3.4032347792       -0.1078447123        2.1898133276
HH32       -4.6540740680       -0.5683495673        1.0158155014
HH33       -3.8851576635       -1.8098696788        2.0289341061
          52
Energy of minimum      6=    -42.02609887     first found at step      210 after               119071 function calls
HH31       -0.4721467554        3.9553164267        3.1245732930
CH3        -0.1273959178        3.5359952410        2.1802712864
HH32        0.8550298534        3.9390663404        1.9372569556
HH33       -0.8325750515        3.7953844516        1.3919909779
C          -0.0421966894        2.0319050537        2.3079480185
O           1.0504341251        1.4673323646        2.2590075213
N          -1.1939727730        1.3817717633        2.4713879088
H          -2.0452721150        1.9235051974        2.4888190877
CA         -1.3016178921       -0.0700201484        2.6471298965
HA         -0.6876479738       -0.3510172183        3.5051986838
CB         -2.7584871052       -0.4193933757        2.9794335512
HB1        -2.8479317953       -1.4908472593        3.1647138125
HB2        -3.4079286752       -0.1477010095        2.1454938230
HB3        -3.0752962902        0.1189963141        3.8739591603
C          -0.7892435731       -0.8612234292        1.4242041061
O          -0.9154887808       -0.4157479873        0.2794345344
N          -0.2077280810       -2.0425368205        1.6676633215
H          -0.1596735280       -2.3486752681        2.6301770661
CA          0.3597318053       -2.9463586312        0.6538454035
HA          0.9512543644       -3.6836026708        1.1993883623
CB         -0.7856940582       -3.7181109894       -0.0232793632
HB1        -1.3949408402       -3.0384013740       -0.6199374949
HB2        -0.3775762467       -4.4938203891       -0.6724168342
HB3        -1.4125847226       -4.1913171860        0.7336553743
C           1.3584563106       -2.2805032054       -0.3307711542
O           1.4695279802       -2.6857619613       -1.4923522028
N           2.0673090818       -1.2331482742        0.1125839829
H           1.9461800050       -0.9500638137        1.0751192330
CA          3.0117268799       -0.4660553198       -0.7087841176
HA          3.6073481665       -1.1674672506       -1.2959940986
CB          3.9646527115        0.2782457613        0.2354500246
HB1         4.7246067046        0.8003428458       -0.3474791197
HB2         4.4593307107       -0.4312031524        0.9003967947
HB3         3.4120574049        1.0068549924        0.8299054663
C           2.3318569428        0.4996027322       -1.7092356481
O           2.9674881959        0.9218843692       -2.6804638580
N           1.0524579533        0.8355655482       -1.4969500301
H           0.5989943724        0.4559356584       -0.6750111183
CA          0.2426662958        1.6936404163       -2.3708839996
HA          0.8894155659        2.1884044365       -3.0971866953
CB         -0.3918926767        2.7847545509       -1.4997493280
HB1        -0.9587396140        3.4722063444       -2.1290157400
HB2         0.3874848958        3.3443453168       -0.9806054984
HB3        -1.0652178118        2.3356394105       -0.7681280724
C          -0.8243712465        0.9146112260       -3.1741845728
O          -1.1640379688        1.3102021355       -4.2946399073
N          -1.3402532676       -0.1963068845       -2.6283167158
H          -1.0512049396       -0.4247286024       -1.6832317942
CH3        -2.3291947347       -1.0668303041       -3.2635034648
HH31       -1.9138543739       -1.5044340924       -4.1736122192
HH32       -2.6109773723       -1.8714415736       -2.5817968998
HH33       -3.2228674550       -0.4947907062       -3.5214776987
          52
Energy of minimum      7=    -41.87641904     first found at step      924 after               572866 function calls
HH31       -1.1775632135       -1.3089643391        3.6222487996
CH3        -0.0896522332       -1.3230771695        3.5669309164
HH32        0.3226387351       -0.6245901196        4.2940203076
HH33        0.2739491063       -2.3274565452        3.7803911772
C           0.3500790073       -0.9190269343        2.1808339737
O          -0.4858789065       -0.6318818182        1.3257074535
N           1.6630556896       -0.8760130665        1.9545470362
H           2.2810314579       -1.1244591386        2.7141878818
CA          2.2639218307       -0.5972335910        0.6438156689
HA          1.9251673215       -1.3626365611       -0.0567084833
CB          3.7866052902       -0.7202283673        0.7829515560
HB1         4.0476986979       -1.7168793731        1.1419843042
HB2         4.2571139220       -0.5638382132       -0.1889206588
HB3         4.1625586285        0.0264424025        1.4844372304
C           1.8611935517        0.7751521944        0.0594266420
O           1.6999362107        0.9001710780       -1.1567986178
N           1.6222955300        1.7760414637        0.9193921255
H           1.7990876407        1.5910404995        1.8973676314
CA          1.0530487131        3.0897897749        0.5786053761
HA          0.7978221226        3.5641403362        1.5277317305
CB          2.1416789680        3.9650820625       -0.0652431607
HB1         1.7758476380        4.9861642759       -0.1797549123
HB2         3.0282839537        3.9813962060        0.5699394648
HB3         2.4095608361        3.5715699030       -1.0463771802
C          -0.2846071826        3.0306793603       -0.2087676280
O          -0.6153648194        3.9508469520       -0.9641118072
N          -1.0473738147        1.9408161707       -0.0449486952
H          -0.7225704863        1.2365749729        0.6078741603
CA         -2.3379170138        1.6784567168       -0.6931652061
HA         -2.5652600673        2.4989791746       -1.3752190992
CB         -3.4176489868        1.6727682555        0.3996055122
HB1        -4.4045646489        1.5685086124       -0.0528639530
HB2        -3.2490267573        0.8414784204        1.0859993744
HB3        -3.3872456848        2.6106546690        0.9559337546
C          -2.3450737780        0.3912531390       -1.5573422951
O          -3.4137419860       -0.0982619085       -1.9377786708
N          -1.1708660070       -0.1782642773       -1.8638090377
H          -0.3227063227        0.2835332498       -1.5613748657
CA         -1.0293292808       -1.3928290426       -2.6778340992
HA         -1.7321099167       -1.3311705266       -3.5107756760
CB          0.3869923430       -1.4071770224       -3.2676614717
HB1         0.4887120988       -2.2469663646       -3.9563147389
HB2         1.1244521110       -1.5125567011       -2.4712657332
HB3         0.5731245107       -0.4814555384       -3.8141393921
C          -1.3411964948       -2.7086275379       -1.9229893974
O          -1.5522122338       -3.7468914522       -2.5597739837
N          -1.3775253225       -2.6857391932       -0.5825349576
H          -1.1814753624       -1.8024646211       -0.1232536720
CH3        -1.6575370844       -3.8396865792        0.2717902390
HH31       -1.6390617136       -3.5391352974        1.3211674981
HH32       -0.9054270779       -4.6152737768        0.1134405970
HH33       -2.6429195194       -4.2487548142        0.0393969813
          52
Energy of minimum      8=    -41.82554517     first found at step      204 after               115541 function calls
HH31        0.1915617515        4.2904765644        2.9013807896
CH3         0.3450691640        3.7813627270        1.9507740101
HH32        1.2708445486        4.1294095902        1.4941948530
HH33       -0.4914528698        3.9955878246        1.2870483671
C           0.4265715532        2.2912224323        2.1931137824
O           1.4709216671        1.6823289935        1.9613613727
N          -0.6750405149        1.7029960407        2.6582651608
H          -1.4900697674        2.2780424010        2.8114271303
CA         -0.7795550460        0.2714728003        2.9586649574
HA          0.0171355841        0.0152749762        3.6600375882
CB         -2.1206489019        0.0120869680        3.6582524854
HB1        -2.1940729434       -1.0399915675        3.9375935202
HB2        -2.9460846282        0.2602133769        2.9888712827
HB3        -2.1927732099        0.6204308359        4.5611088817
C          -0.6052012100       -0.6173185079        1.7071744090
O          -0.9426746923       -0.2159762800        0.5889057432
N          -0.0760184136       -1.8332060999        1.8980761838
H           0.1528640117       -2.0994294730        2.8464023524
CA          0.1984043368       -2.8219277837        0.8429290818
HA          0.8414341652       -3.5809838414        1.2918363232
CB         -1.1146599179       -3.5273742064        0.4621606699
HB1        -1.7902775605       -2.8253948586       -0.0283743821
HB2        -0.9067068321       -4.3549697507       -0.2172472461
HB3        -1.5962439650       -3.9231761571        1.3572914646
C           1.0062768333       -2.2670180737       -0.3596347090
O           0.7667335386       -2.6350005891       -1.5139611442
N           1.9306956377       -1.3307479482       -0.1060250547
H           2.0827547040       -1.0615316130        0.8561131107
CA          2.7549006380       -0.6806664118       -1.1333073401
HA          3.1902454147       -1.4573285834       -1.7648810446
CB          3.9040110045        0.0495174425       -0.4263152091
HB1         4.4707565893       -0.6530570988        0.1863662652
HB2         4.5735540665        0.4854759880       -1.1690212048
HB3         3.5102514859        0.8459663103        0.2064674919
C           1.9643226585        0.2707028511       -2.0638297844
O           2.4354148990        0.5911481633       -3.1594113714
N           0.7609185487        0.6944023814       -1.6569105611
H           0.4437948680        0.4011444580       -0.7403729333
CA         -0.1749313862        1.5034436587       -2.4461458594
HA          0.3615218691        1.9455958959       -3.2870538204
CB         -0.6646978826        2.6569956323       -1.5595618254
HB1         0.1888456524        3.2231988394       -1.1844492405
HB2        -1.2994470901        3.3264554763       -2.1412910648
HB3        -1.2379276897        2.2654429443       -0.7182742506
C          -1.3408216661        0.6827769247       -3.0553337049
O          -2.2131818722        1.2484378553       -3.7243478232
N          -1.3714409095       -0.6414957230       -2.8382734501
H          -0.6194610588       -1.0404687529       -2.2912125294
CH3        -2.4057951572       -1.5530128931       -3.3268348342
HH31       -3.3793507451       -1.2659723322       -2.9241650266
HH32       -2.1811751246       -2.5740433977       -3.0121376116
HH33       -2.4500941357       -1.5215184094       -4.4174442514
          52
Energy of minimum      9=    -41.62606181     first found at step      595 after               355151 function calls
HH31       -0.5505395409       -0.3841849511        5.3387571498
CH3        -1.5201281926       -0.4100530332        4.8427020010
HH32       -1.9692723595       -1.3942467900        4.9701282511
HH33       -2.1725120694        0.3460550665        5.2778093336
C          -1.3439518066       -0.1274000109        3.3688115773
O          -0.2206602256        0.0803516589        2.9122908119
N          -2.4546857018       -0.1338120742        2.6275812096
H          -3.3244132814       -0.3155428932        3.1087499506
CA         -2.5360033305        0.1545943316        1.1860777394
HA         -3.5182274120       -0.1900218767        0.8586255234
CB         -2.5121162825        1.6790127904        0.9807046745
HB1        -2.7146580898        1.9149171024       -0.0647914108
HB2        -3.2780350317        2.1491851763        1.5988447434
HB3        -1.5344686369        2.0785317758        1.2538504915
C          -1.5220429154       -0.6227601266        0.3087790251
O          -1.0245782481       -0.1022665849       -0.6937156238
N          -1.1674926996       -1.8514197991        0.7100798164
H          -1.6267973124       -2.2148433209        1.5336555401
CA         -0.1394867217       -2.7004853996        0.0888358908
HA          0.0571770344       -3.5078257383        0.7962520863
CB         -0.7260714785       -3.3561776162       -1.1728911442
HB1        -0.9064590467       -2.6014516741       -1.9390622053
HB2        -0.0295129575       -4.0995919710       -1.5624521442
HB3        -1.6661782166       -3.8531264723       -0.9298628729
C           1.2347588692       -2.0096373303       -0.1235759897
O           1.9741369479       -2.3471557370       -1.0538622158
N           1.5755227922       -1.0169175830        0.7101622832