          52
Energy of minimum      1=    -15.33241091     first found at step      202 after               105320 function calls
HH31       -1.4005481807       -2.3671509149       -2.1373920506
CH3        -1.1324082270       -2.3525535076       -1.0822049651
HH32       -0.0499930414       -2.3326918850       -0.9806769776
HH33       -1.5297427429       -3.2397379965       -0.5918330869
C          -1.7146945357       -1.1244945456       -0.4258448583
O          -2.1167680693       -1.1835478249        0.7314781448
N          -1.7442485116       -0.0010156047       -1.1385179866
H          -1.2851312287        0.0024156348       -2.0439063983
CA         -2.3081034293        1.2585865428       -0.6500810550
HA         -3.3163684314        1.0689226506       -0.2790048572
CB         -2.4149184426        2.2325764675       -1.8308688084
HB1        -1.4271813005        2.4166026463       -2.2564507437
HB2        -2.8352385851        3.1790798439       -1.4893950647
HB3        -3.0627832306        1.8126792116       -2.6011595709
C          -1.4647294354        1.8167446866        0.5124018180
O          -0.3900659341        2.3740479301        0.3031013518
N          -1.9007136589        1.5829760770        1.7543406075
H          -2.7472993081        1.0468107087        1.8690380269
CA         -1.0789604968        1.8320860038        2.9446468419
HA         -0.7818882267        2.8824636426        2.9524679892
CB         -1.9402656139        1.5598171883        4.1837104351
HB1        -2.8220930124        2.2015087364        4.1729850292
HB2        -2.2501811050        0.5138728347        4.2039391522
HB3        -1.3598822554        1.7749080135        5.0823390214
C           0.2199834899        0.9920509690        2.9632778670
O           1.1972959037        1.3866116320        3.5914522323
N           0.2448193154       -0.1347912503        2.2406825248
H          -0.6202922267       -0.4276913150        1.8022227980
CA          1.4256534194       -0.9693185219        2.0078815328
HA          2.2056888855       -0.6722679859        2.7108877412
CB          1.0489413501       -2.4222227716        2.3318452446
HB1         0.6711057436       -2.4873631902        3.3529240182
HB2         1.9293028960       -3.0601785808        2.2435013242
HB3         0.2823739094       -2.7740874945        1.6408901567
C           2.0368186920       -0.7963998730        0.5946373940
O           2.7897973640       -1.6565376268        0.1372757787
N           1.6995181842        0.2730963300       -0.1393233102
H           1.0854311503        0.9754615303        0.2574764642
CA          2.1995866224        0.5021844610       -1.4971005078
HA          3.2662345457        0.2717724020       -1.5104781932
CB          2.0591736129        1.9907032461       -1.8426042938
HB1         1.0071612755        2.2708152284       -1.8875965477
HB2         2.5139211542        2.1843619389       -2.8143894066
HB3         2.5600383749        2.5978638216       -1.0874934059
C           1.5098522131       -0.4246074028       -2.5207394747
O           0.4323988137       -0.1200858685       -3.0366826107
N           2.1268372718       -1.5808976780       -2.7897228575
H           2.9385334188       -1.8058408287       -2.2280743473
CH3         1.6525467346       -2.5774764362       -3.7479281117
HH31        1.3059732401       -2.0829845316       -4.6579241142
HH32        2.4606112908       -3.2651244363       -4.0017246331
HH33        0.8249003582       -3.1419523072       -3.3162852570
          52
Energy of minimum      2=    -14.51727918     first found at step      188 after                96538 function calls
HH31       -1.7330412737        1.5741857983       -2.8885474923
CH3        -2.7874472439        1.5701629466       -2.6215688120
HH32       -3.1831253217        2.5837423710       -2.6639585336
HH33       -3.3318994979        0.9330913360       -3.3157449616
C          -2.9551538168        1.0298041013       -1.2218893949
O          -3.5585325940        1.6793489929       -0.3769172528
N          -2.4017834728       -0.1510636178       -0.9589508982
H          -1.8418890358       -0.5749469142       -1.6914164316
CA         -2.5581991902       -0.8944306564        0.2980135202
HA         -3.5938765559       -0.7772190928        0.6214178703
CB         -2.3364911864       -2.3849586738        0.0042337550
HB1        -2.9906951021       -2.7084753650       -0.8062032342
HB2        -2.5619910093       -2.9723586374        0.8952982618
HB3        -1.2972245415       -2.5540352817       -0.2763215090
C          -1.6823324382       -0.3563080399        1.4566079634
O          -1.0681894838       -1.1224262196        2.2000600017
N          -1.5670494247        0.9684529096        1.5860754222
H          -2.1377607741        1.5421417841        0.9741781573
CA         -0.6945018498        1.6497195523        2.5440619623
HA         -0.8076128502        1.1720982389        3.5187861314
CB         -1.1714872260        3.1031195132        2.6757539145
HB1        -2.2082419464        3.1249981761        3.0140810989
HB2        -0.5499368476        3.6284034336        3.4018697020
HB3        -1.0974365604        3.6114040665        1.7128477229
C           0.7890802735        1.5219962852        2.1339647601
O           1.3853088005        2.4439984633        1.5806773573
N           1.3650545413        0.3299899042        2.3094595863
H           0.7736892322       -0.4142152484        2.6636784346
CA          2.7136007150       -0.0373190901        1.8614536740
HA          3.3726287593        0.8135511174        2.0423829926
CB          3.2072486731       -1.2013611262        2.7329267971
HB1         2.5814809535       -2.0802053002        2.5699097292
HB2         4.2374264521       -1.4459730783        2.4703566066
HB3         3.1703464882       -0.9203823861        3.7860782684
C           2.7774544470       -0.3277555663        0.3405265300
O           3.4168404544       -1.2803997017       -0.1050692308
N           2.0532031126        0.4560064593       -0.4635306391
H           1.6080748895        1.2596501612       -0.0373266062
CA          1.8762499832        0.2697936846       -1.9034870254
HA          2.8473060110        0.0288850972       -2.3395262614
CB          1.4218436418        1.6111548215       -2.4968475948
HB1         0.4804224156        1.9215818278       -2.0425845372
HB2         1.2840381207        1.5091751659       -3.5740469764
HB3         2.1776482232        2.3746250638       -2.3077110183
C           0.9312709032       -0.9120972440       -2.2298128336
O          -0.1878175292       -0.7211251855       -2.7092811947
N           1.3778879514       -2.1379805377       -1.9306497746
H           2.2788652707       -2.1865492547       -1.4631875317
CH3         0.6764726913       -3.3948344232       -2.1924198302
HH31       -0.3466466394       -3.2060488334       -2.5237209765
HH32        1.1992402837       -3.9519655148       -2.9713218527
HH33        0.6476801239       -3.9966462826       -1.2826578160
          52
Energy of minimum      3=    -14.51727918     first found at step      146 after                75502 function calls
HH31       -1.1567194829        1.8256506333       -3.0255902942
CH3        -2.2337079283        1.6756539692       -3.0513320629
HH32       -2.7405339354        2.6392185843       -3.0706170107
HH33       -2.4961766021        1.1038014330       -3.9391743286
C          -2.6695300243        0.9098354430       -1.8254459695
O          -3.5469445479        1.3567581816       -1.0971903422
N          -2.0436487699       -0.2368952411       -1.5742779881
H          -1.2666667792       -0.4838784468       -2.1783995535
CA         -2.4054687749       -1.1788699700       -0.5071370028
HA         -3.4950538362       -1.2166552907       -0.4588338413
CB         -1.9168177460       -2.5760195093       -0.9149704119
HB1        -2.2982559335       -2.8324599570       -1.9040089007
HB2        -2.2749907196       -3.3145257888       -0.1964960269
HB3        -0.8274017408       -2.5955298699       -0.9278321584
C          -1.9273986318       -0.7438206300        0.9004284839
O          -1.4193658015       -1.5518040009        1.6788211109
N          -2.0294310255        0.5493980610        1.2201445604
H          -2.5023853260        1.1520600888        0.5550420587
CA         -1.5240706831        1.1560660561        2.4529326891
HA         -1.8102537632        0.5235435939        3.2949647556
CB         -2.2120827004        2.5167039113        2.6333028067
HB1        -3.2934399118        2.3827928027        2.6836883788
HB2        -1.8684219661        2.9813491481        3.5582321617
HB3        -1.9704708133        3.1736517644        1.7960046322
C           0.0180219427        1.2413940821        2.4395780156
O           0.6020136322        2.2928237685        2.1843276573
N           0.6888703300        0.0995832805        2.6117829543
H           0.1349140833       -0.7456002826        2.7002276128
CA          2.1435338045       -0.0580204877        2.4963827536
HA          2.6145805878        0.8152917951        2.9507769404
CB          2.5583121524       -1.2889709554        3.3154477320
HB1         2.1185054397       -2.1892735466        2.8835308602
HB2         3.6448164012       -1.3864206789        3.3079350888
HB3         2.2224082661       -1.1806145442        4.3473713290
C           2.6230603205       -0.1000992043        1.0233132715
O           3.4768022509       -0.9035860190        0.6485672812
N           2.0221379720        0.7237645968        0.1599062959
H           1.3797778669        1.4030757137        0.5491904120
CA          2.2364075221        0.7476471815       -1.2868072822
HA          3.3089166105        0.6750163238       -1.4753967536
CB          1.7658606215        2.1134099374       -1.8074696294
HB1         2.3395583154        2.9091311443       -1.3303965362
HB2         0.7077662433        2.2544586312       -1.5849042895
HB3         1.9158629269        2.1674182133       -2.8865113968
C           1.5724362951       -0.4566544133       -1.9975393337
O           0.5927718219       -0.3050800040       -2.7296608247
N           2.0930602413       -1.6638456369       -1.7457552258
H           2.8471874322       -1.6951972041       -1.0653514823
CH3         1.6567653682       -2.9277585142       -2.3393541192
HH31        2.4278486977       -3.3021372727       -3.0143655347
HH32        1.4845184695       -3.6638606808       -1.5524881482
HH33        0.7325218279       -2.7919201897       -2.9045933944
          52
Energy of minimum      4=    -13.23755131     first found at step      101 after                55732 function calls
HH31       -2.7195139948        1.5111912884       -3.6392760089
CH3        -2.0583286455        0.6545428238       -3.5172742375
HH32       -1.0221725585        0.9873715797       -3.5089271362
HH33       -2.2077330132       -0.0445932662       -4.3376674886
C          -2.3792438275       -0.0379961623       -2.2145220877
O          -3.3544662936        0.3118864960       -1.5621788535
N          -1.5485202283       -1.0122270243       -1.8442906460
H          -0.7360123273       -1.1403428510       -2.4380172818
CA         -1.5858077411       -1.8361640189       -0.6238406652
HA         -0.7120783791       -2.4855880562       -0.6739004490
CB         -2.8078118560       -2.7644537899       -0.6678832896
HB1        -2.8134494152       -3.3291027171       -1.6008519809
HB2        -2.7655068530       -3.4628577773        0.1688131510
HB3        -3.7267189385       -2.1811254935       -0.5948589625
C          -1.4498927671       -1.0905561080        0.7240603809
O          -0.7997801446       -1.6043565717        1.6339144046
N          -1.9881608158        0.1233651581        0.8619879984
H          -2.5533207472        0.4690824598        0.0934637848
CA         -1.8316224228        0.9865965943        2.0326541792
HA         -2.0093800056        0.3939379127        2.9315388738
CB         -2.9072598553        2.0799034248        1.9684961373
HB1        -3.8987941563        1.6253681315        1.9611463315
HB2        -2.7811689660        2.6780824140        1.0643362896
HB3        -2.8208491328        2.7310816256        2.8390064263
C          -0.3950361480        1.5441240320        2.1115009596
O          -0.1054897172        2.6463854979        1.6491467082
N           0.5400747969        0.7307531472        2.6081423158
H           0.2464062069       -0.2086886707        2.8484245521
CA          1.9813086333        1.0033268300        2.6048073049
HA          2.1292472180        2.0614947132        2.8274468535
CB          2.6271772417        0.1942555686        3.7390171672
HB1         2.1591228634        0.4477892425        4.6908857312
HB2         3.6911576802        0.4281049960        3.7964972419
HB3         2.5090687442       -0.8737983537        3.5496839100
C           2.6144514757        0.7485071848        1.2146078287
O           3.6316470674        0.0683916396        1.0870043774
N           1.9597526952        1.2216465670        0.1498028155
H           1.1538292380        1.8079857260        0.3342918884
CA          2.3023537839        0.9657565722       -1.2516216367
HA          3.3862303023        1.0411658407       -1.3545321076
CB          1.6771194059        2.0833561925       -2.0994292521
HB1         0.5913117686        2.0658006536       -1.9985254678
HB2         2.0517141074        3.0531260895       -1.7691984817
HB3         1.9418026717        1.9419972243       -3.1481633519
C           1.9128699894       -0.4627490494       -1.7098071242
O           1.1547247983       -0.6407342458       -2.6649288393
N           2.3923253138       -1.4842655696       -0.9889707220
H           2.9985361182       -1.2397178835       -0.2108829558
CH3         2.1289757928       -2.9036113706       -1.2249203909
HH31        1.5985553218       -3.0482798736       -2.1683130074
HH32        1.5252804449       -3.3062298210       -0.4098778591
HH33        3.0730752703       -3.4489389522       -1.2680173276
          52
Energy of minimum      5=    -12.94649040     first found at step      125 after                66328 function calls
HH31       -0.9780318092        1.0812981341       -3.5548904489
CH3        -2.0485832191        0.8973824383       -3.6134153065
HH32       -2.5666310164        1.8145612298       -3.8892450624
HH33       -2.2412631558        0.1274633128       -4.3579161005
C          -2.5563325512        0.4240404064       -2.2727709230
O          -3.4952776734        0.9941896291       -1.7301363221
N          -1.9252533021       -0.6066333505       -1.7170658224
H          -1.0988170139       -0.9575021821       -2.1900600190
CA         -2.3337568654       -1.2715363617       -0.4739618840
HA         -3.4241972905       -1.3145968079       -0.4637416659
CB         -1.8202004063       -2.7178838747       -0.5123323392
HB1        -2.1677028063       -3.2144269387       -1.4190152436
HB2        -0.7309188440       -2.7224490624       -0.4895968661
HB3        -2.1943963054       -3.2633624024        0.3549842025
C          -1.9180118088       -0.4953567425        0.7992559185
O          -1.3304520884       -1.0628552315        1.7196788551
N          -2.1920116522        0.8148867032        0.8297573993
H          -2.7204623183        1.1669695699        0.0374256527
CA         -1.7285774327        1.8137999289        1.8041984813
HA         -2.0542233784        2.7838032895        1.4251224587
CB         -2.4460949699        1.6213272339        3.1489616657
HB1        -2.1706845880        0.6654740730        3.5960550405
HB2        -2.1665299324        2.4257059821        3.8303492419
HB3        -3.5259687194        1.6459506800        2.9977691082
C          -0.1929670769        1.9219478572        1.9198317301
O           0.3842829283        2.9123906268        1.4790410315
N           0.4887231020        0.8884427957        2.4185814758
H          -0.0510403060        0.0623997450        2.6550901752
CA          1.9508664691        0.7712475444        2.4601014901
HA          2.3613467896        1.7484482298        2.7198268857
CB          2.3208838811       -0.2041028183        3.5868709490
HB1         1.9387341455       -1.2000069037        3.3572306313
HB2         3.4058636481       -0.2548597807        3.6878424790
HB3         1.8952846586        0.1384155843        4.5307725977
C           2.5534399747        0.3903532967        1.0841997743
O           3.4571465718       -0.4394950374        0.9853414443
N           2.0039044211        0.9470182110        0.0007890377
H           1.3147177968        1.6710791480        0.1599902567
CA          2.3239380283        0.6102955124       -1.3860204373
HA          3.4086724812        0.5334332887       -1.4785991006
CB          1.8644214778        1.7781554802       -2.2707752859
HB1         2.0941382487        1.5610295147       -3.3147241205
HB2         2.3832838600        2.6916042056       -1.9770477008
HB3         0.7896857853        1.9282961880       -2.1640441665
C           1.7378392148       -0.7602113232       -1.8036598440
O           0.8056933151       -0.8381058560       -2.6063465616
N           2.2709974672       -1.8416406553       -1.2221449894
H           2.9759330964       -1.6675855687       -0.5112764534
CH3         1.9049771118       -3.2319678401       -1.4922278233
HH31        2.7674568094       -3.7681753887       -1.8908433933
HH32        1.0925762975       -3.2849870573       -2.2198458069
HH33        1.5835789501       -3.7136686560       -0.5673642956
          52
Energy of minimum      6=    -12.66968402     first found at step       92 after                51048 function calls
HH31       -2.2081558413        1.4351973340       -4.0713626348
CH3        -1.7739143541        0.5283154889       -3.6534182511
HH32       -0.7014447534        0.6575538546       -3.5260801261
HH33       -1.9584046354       -0.3103922793       -4.3217899250
C          -2.4124873054        0.2427826240       -2.3156182544
O          -3.3310537223        0.9424140071       -1.9072468102
N          -1.9155295308       -0.7713979067       -1.6125199637
H          -1.0982682620       -1.2404519601       -1.9890683386
CA         -2.4737858830       -1.2763642496       -0.3511761633
HA         -3.5610683800       -1.2576256075       -0.4428318370
CB         -2.0518559032       -2.7443487247       -0.1945410657
HB1        -2.3319544748       -3.3115059268       -1.0829916579
HB2        -2.5503505378       -3.1790358520        0.6728791906
HB3        -0.9734468685       -2.8039834637       -0.0484983113
C          -2.1298602911       -0.4013714221        0.8798972789
O          -1.7870777051       -0.9104156445        1.9479664150
N          -2.1550973509        0.9257293952        0.7281860255
H          -2.4942477563        1.2839802560       -0.1582565107
CA         -1.7027460733        1.8907611224        1.7306461506
HA         -2.1282741867        1.6184712420        2.6979608390
CB         -2.2503325648        3.2729537530        1.3475345966
HB1        -1.9353659628        4.0096760728        2.0874186150
HB2        -1.8704121553        3.5697559941        0.3684044663
HB3        -3.3402590518        3.2449105927        1.3154578890
C          -0.1650066171        1.8522723241        1.8624494761
O           0.5427162901        2.6455799544        1.2450510399
N           0.3441074193        0.8629582883        2.6069428972
H          -0.3406612638        0.2161645192        2.9809556337
CA          1.7484641938        0.4256883440        2.7030731145
HA          1.7510022395       -0.4427622574        3.3631666787
CB          2.5867142273        1.5010827832        3.4094669381
HB1         3.5889129700        1.1142593536        3.5983984202
HB2         2.6661963260        2.3913426016        2.7845268064
HB3         2.1253672969        1.7683339565        4.3607213449
C           2.3874170028       -0.0746498912        1.3850565097
O           3.2031757574       -0.9946585189        1.4141794442
N           1.9830032177        0.4530959934        0.2274312907
H           1.3768056554        1.2629542855        0.2813893533
CA          2.3775198929       -0.0047372730       -1.1038613072
HA          3.4522585651       -0.1943078876       -1.0976296615
CB          2.1142379049        1.1417694345       -2.0906256021
HB1         2.3995312795        0.8339442416       -3.0973423640
HB2         1.0566044913        1.4069899720       -2.0824522209
HB3         2.7022222534        2.0158172627       -1.8073496331
C           1.6858664706       -1.3341967347       -1.4891758761
O           0.8070640186       -1.3711898629       -2.3523836978
N           2.0635571386       -2.4245432248       -0.8109313157
H           2.7335563414       -2.2787093769       -0.0612851529
CH3         1.5774563779       -3.7852253324       -1.0394193475
HH31        0.6682307854       -3.7740896656       -1.6438086779
HH32        2.3390378382       -4.3642985032       -1.5639206671
HH33        1.3600354772       -4.2644934860       -0.0835750404
          52
Energy of minimum      7=    -12.66968402     first found at step      138 after                72310 function calls
HH31       -2.9021860190        1.9571602031       -3.3553814806
CH3        -2.2027579864        1.1276963896       -3.2633593739
HH32       -1.1964295741        1.5093851531       -3.1061161974
HH33       -2.2221002174        0.5271048739       -4.1706100512
C          -2.6065720288        0.2651797286       -2.0920300078
O          -3.6333754558        0.5083775037       -1.4703024687
N          -1.7902163284       -0.7336382062       -1.7667570596
H          -0.9188652905       -0.8069638119       -2.2816231491
CA         -2.0660841395       -1.7478108897       -0.7406088887
HA         -3.1225395343       -2.0110267315       -0.8151377950
CB         -1.2546966845       -3.0061747832       -1.0807685503
HB1        -0.1904675580       -2.7996779603       -0.9684019100
HB2        -1.5309549739       -3.8153324143       -0.4034111943
HB3        -1.4598607255       -3.3186306647       -2.1053396763
C          -1.8479267369       -1.2467525290        0.7088002857
O          -1.2779744272       -1.9474044686        1.5464391251
N          -2.2409487804       -0.0046914673        1.0048877546
H          -2.7492572516        0.5031314602        0.2887275682
CA         -1.9654510865        0.6808974808        2.2677824574
HA         -2.2051764608        0.0079429204        3.0927537061
CB         -2.8968261920        1.8973991156        2.3665047147
HB1        -2.7181316551        2.4201817967        3.3068018128
HB2        -3.9374529675        1.5722677371        2.3327322614
HB3        -2.7085293665        2.5833076037        1.5387361771
C          -0.4678994073        1.0416250438        2.3712750919
O          -0.0619444209        2.1559404962        2.0474060452
N           0.3575735904        0.0556997870        2.7437741331
H          -0.0895015277       -0.8425974934        2.8863283145
CA          1.8300435751        0.0287850766        2.6823598215
HA          2.1292842025       -0.9651014348        3.0178908213
CB          2.4168125620        1.0174926884        3.7003421223
HB1         3.4994518734        0.8925983554        3.7453234408
HB2         1.9973086376        0.8278319408        4.6888735510
HB3         2.1938670364        2.0433386374        3.4047655693
C           2.4457042928        0.1737727368        1.2696647867
O           3.4759558996       -0.4363108982        0.9884069854
N           1.8028243534        0.9021145994        0.3540306432
H           1.0110650244        1.4458296953        0.6761307374
CA          2.1714944664        1.0202758516       -1.0558328048
HA          3.2530245396        1.1522621198       -1.1183739399
CB          1.5158412982        2.2949000646       -1.6062425105
HB1         1.8745244504        3.1638168221       -1.0528343986
HB2         0.4319650434        2.2317078106       -1.5051673600
HB3         1.7718936125        2.4152941077       -2.6596036929
C           1.8247534687       -0.2581396363       -1.8556695025
O           0.9067465694       -0.2688670228       -2.6778241343
N           2.5446154573       -1.3519645500       -1.5784202096
H           3.2221922098       -1.2662124605       -0.8263084245
CH3         2.4187714781       -2.6497307673       -2.2416868690
HH31        1.4843559722       -2.7072776881       -2.8035210613
HH32        2.4326102551       -3.4472576743       -1.4971282962
HH33        3.2514469276       -2.7917542474       -2.9322769196
          52
Energy of minimum      8=    -12.61054708     first found at step       76 after                42972 function calls
HH31       -3.1446161060        1.7202008929       -3.3893060261
CH3        -2.6979430649        0.8177364648       -2.9747025889
HH32       -3.1453590016       -0.0601763148       -3.4373309601
HH33       -1.6258266926        0.8169097200       -3.1603506678
C          -2.9484988934        0.7781691642       -1.4867251362
O          -3.5184279356        1.7088700113       -0.9308473413
N          -2.4946915835       -0.2847418882       -0.8275264579
H          -1.9854009925       -0.9791411543       -1.3641118331
CA         -2.6947340775       -0.5412592796        0.6045880664
HA         -3.7188981839       -0.2558220120        0.8507362523
CB         -2.5691087909       -2.0530871714        0.8420598181
HB1        -2.8209817931       -2.2838982949        1.8779952469
HB2        -1.5454891342       -2.3737693557        0.6481180058
HB3        -3.2511263218       -2.5934191016        0.1844856922
C          -1.7760081029        0.3064652093        1.5196404376
O          -1.1540699072       -0.2049860839        2.4513864791
N          -1.6294023776        1.6008640774        1.2229378598
H          -2.1984126286        1.9686568107        0.4673422538
CA         -0.6980694703        2.5159523297        1.8838991057
HA         -0.7760900496        2.3750353131        2.9632992706
CB         -1.1310718047        3.9538765162        1.5647202860
HB1        -0.4609535254        4.6570009491        2.0607280531
HB2        -1.0927205044        4.1276047491        0.4879470219
HB3        -2.1486999519        4.1229420391        1.9191198053
C           0.7586303622        2.2062344401        1.4764007953
O           1.3382216876        2.8596909336        0.6106337212
N           1.3241728986        1.1298993304        2.0280412366
H           0.7403911721        0.5708936804        2.6406582853
CA          2.6388691534        0.5853777251        1.6709405698
HA          3.3174195364        1.4225091367        1.4980993825
CB          3.1732177750       -0.2036151249        2.8753983467
HB1         4.1814542225       -0.5613826211        2.6620789794
HB2         2.5280957884       -1.0605566626        3.0755751164
HB3         3.2070217135        0.4383282579        3.7564025556
C           2.6000369493       -0.2311097169        0.3546140544
O           3.1432181677       -1.3317201244        0.2772886568
N           1.9098160839        0.2984529545       -0.6637571337
H           1.5772928294        1.2439134180       -0.5113611216
CA          1.5157389648       -0.3323161497       -1.9323886930
HA          0.8828072273        0.3929142310       -2.4451769710
CB          2.7489282661       -0.5210062403       -2.8279642429
HB1         2.4355357686       -0.8788718158       -3.8094116483
HB2         3.4304295874       -1.2497009092       -2.3872689711
HB3         3.2698626713        0.4296854387       -2.9477400012
C           0.6474622371       -1.6068609258       -1.8101073481
O          -0.4572087710       -1.6331389347       -2.3525791581
N           1.1056017845       -2.6363580911       -1.0898203486
H           2.0045795292       -2.5038632383       -0.6344787773
CH3         0.4288729244       -3.9199900231       -0.9076751237
HH31       -0.6404700644       -3.8228048750       -1.1047705366
HH32        0.8467104343       -4.6559134848       -1.5963131165
HH33        0.5698919944       -4.2686741991        0.1165788486
          52
Energy of minimum      9=    -11.72038208     first found at step      115 after                62364 function calls
HH31       -3.0965768339        1.4330969808       -3.5388435186
CH3        -2.3164329137        0.6745311161       -3.4960505666
HH32       -1.3382797795        1.1518996680       -3.4942447330
HH33       -2.3967243293        0.0159047230       -4.3585802287
C          -2.4848915681       -0.1398913149       -2.2358589401
O          -3.4718935564        0.0254567815       -1.5299739139
N          -1.5136483243       -1.0107076145       -1.9629583275
H          -0.7162730472       -0.9837188523       -2.5894904442
CA         -1.3758689139       -1.8940273524       -0.7929518510
HA         -0.4324757767       -2.4228866760       -0.9271645637
CB         -2.4708738438       -2.9699661612       -0.8219793654
HB1        -3.4506615610       -2.5164943642       -0.6665323290
HB2        -2.4615952650       -3.4845452389       -1.7834516647
HB3        -2.2885464895       -3.6966958846       -0.0293942474
C          -1.2505006530       -1.1980773275        0.5813653459
O          -0.4038740170       -1.6025096942        1.3761821237
N          -2.0410804676       -0.1537177300        0.8534737957
H          -2.7357724475        0.0649451130        0.1461815748
CA         -1.9505392175        0.7746767473        1.9886006908
HA         -2.6646869013        1.5746229750        1.7867118227
CB         -2.4303690240        0.0919366748        3.2788481804
HB1        -1.7705063110       -0.7353156252        3.5426241821
HB2        -3.4415812888       -0.2916821306        3.1376347902
HB3        -2.4381158022        0.8158445402        4.0945225521
C          -0.5827956265        1.4782125832        2.1099741588
O          -0.4592605659        2.6456465685        1.7478829341
N           0.4667721057        0.7660183915        2.5252177271