          38
Energy of minimum      1=    -173.9284250     first found at step     1520 after               110360 function calls
SI        -0.0779495870        0.4608015193        1.6859946949
SI        -1.4432274889        0.2577201950        0.9547764715
SI         0.3828765163       -1.6893408806       -0.2458050128
SI        -1.3701072919        0.5498098389       -0.9388521708
SI        -0.3759228709       -1.3308616645        1.0715966487
SI        -1.3666228399       -0.9568570619       -0.5268704595
SI         1.4431672602       -0.2577473631       -0.9548657660
SI         0.3759207920        1.3309336714       -1.0715038759
SI         0.0779788269       -0.4607565180       -1.6859647986
SI         1.3666620072        0.9567833141        0.5268939933
SI        -0.3828944347        1.6893086482        0.2458183705
SI         1.3701253608       -0.5497947624        0.9387624441
SI         0.7623208693       -1.1124533655       -1.1145486847
SI         0.9891128726        0.3826852380        1.3914284012
SI         0.7588717316        0.3939364796       -1.5263635771
SI         1.7477706445        0.0243258671        0.0742727676
SI        -0.6859629112        1.4086958552       -0.7783825539
SI         0.6790051319        1.6116630124       -0.0473418920
SI        -1.7477696716       -0.0243600112       -0.0743931527
SI        -0.6789764517       -1.6116768206        0.0474479057
SI        -0.7588768637       -0.3938387341        1.5263773181
SI        -0.9890849225       -0.3827081573       -1.3914061919
SI        -0.7623678971        1.1123985462        1.1145253288
SI         0.6859469046       -1.4086719359        0.7783790791
SI         0.3007083869        1.0314322288        0.8162465776
SI         1.0610676668       -0.8289240470       -0.0869448567
SI         0.3041796359       -0.4713758740        1.2271203351
SI        -1.0610876589        0.8288995275        0.0868938952
SI        -0.3007027312       -1.0314468448       -0.8162124829
SI         1.0576128869        0.6739206876       -0.4978017645
SI        -1.0576142330       -0.6739131820        0.4978087153
SI        -0.3041594254        0.4714082811       -1.2271008732
SI        -0.0017295876        0.7484549664       -0.2046233607
SI        -0.6782037015       -0.1008651051       -0.3632214663
SI         0.6782114786        0.1008586709        0.3632148152
SI         0.0017263328       -0.7484491410        0.2046433966
SI         0.3769626227       -0.1780549698       -0.6544279539
SI        -0.3769673599        0.1780598911        0.6544297354
