 150
Energy of minimum      1=    -893.3102550     first found at step      359
SI         2.9481485620       -1.0729714602       -1.3874933914
SI         3.2850868170       -0.0849603878       -0.9844051917
SI         2.7924144301       -0.1413837935       -1.9875433764
SI        -3.1577266446       -0.7095957238       -0.2827199999
SI        -1.6789281445       -0.5409627880        2.7282306302
SI        -2.1461977411        2.2556318839        0.9277076907
SI        -0.8884918999       -3.0218527446        0.6055955836
SI        -1.6444444690        1.5029050603       -2.3075629400
SI         0.7481309705        1.7758666359        2.5640205133
SI        -0.8688610261       -1.7582947505       -2.5055555103
SI         0.7675939555        3.0390271756       -0.5473224748
SI         1.5235027824       -1.4854334222        2.3657494901
SI         1.5696219607        0.5505818934       -2.6604649448
SI         3.0368492994        0.7179839500        0.3271083506
SI         2.0332269352       -2.2242503831       -0.8738999078
SI        -2.8383386827        0.2831584112        0.1223570477
SI        -2.5005916446        1.2732366958        0.5265100767
SI        -2.6811216266       -0.6577611042        0.7281428865
SI        -2.1873469499       -0.6014687230        1.7334831294
SI        -2.0030734466        1.3299564437        1.5395214252
SI        -1.8470540757        0.3961832818        2.1407030348
SI        -0.6124195820       -0.8624002058        2.6245110636
SI        -1.1868092837        2.1094365255        1.4844924381
SI        -2.6698412157        0.0300253124       -0.9659377182
SI        -2.4085958992       -1.0672732657       -1.0326763283
SI        -2.4154801871       -1.4923793345        0.0142184100
SI        -1.9917795989        2.0176433999       -0.1545949830
SI        -1.1799598402        2.5343878792        0.4375374211
SI        -1.4242063037       -1.3793478186        2.0324746404
SI        -0.8735950354        0.2348954192        2.6913738782
SI        -0.8874190275       -2.6172385731       -0.4370496178
SI        -1.3941615472        0.4159797195       -2.3899137247
SI        -0.8436927666        2.0296482890       -1.7312340820
SI         0.7602002919        2.2126341502        1.5344951629
SI        -0.0826571106       -2.5254687409        1.2014843537
SI         1.0144673326        0.6907683193        2.5143523814
SI         0.4568580300       -1.1777447943        2.5034413038
SI        -2.1644987318        0.7688236773       -1.6420193961
SI        -1.6577280417       -2.2644333799        0.3108600455
SI        -0.2203490406        1.9491999262        2.0308557382
SI        -1.1602747831       -2.2077242232        1.3236660376
SI        -1.8242247758        1.7662459410       -1.2348815693
SI        -0.0631751834        1.0085159952        2.6364902458
SI        -0.2070514297        2.7959079555       -0.0549829807
SI        -1.6443144683       -1.4174065902       -1.7748571276
SI         1.5240968405        1.4347452466        1.8328386665
SI         0.0868382582       -2.7785630717        0.1129525986
SI        -0.5770397546        1.1950035002       -2.4453335953
SI        -0.0385151458        2.5424525682       -1.1433863129
SI        -0.8809725645       -2.1952288162       -1.4756737709
SI        -1.1353100281       -0.6728273095       -2.4558349132
SI         0.7664944769        2.6342929363        0.4957193065
SI         0.7224704362       -2.0123623636        1.7891807645
SI         1.2731353272       -0.3980947842        2.4481143625
SI        -0.0584781464       -0.9905427152       -2.5780143969
SI         1.0384386247        2.2251289079       -1.2653967219
SI         0.0988104047       -1.9320339107       -1.9718469144
SI         1.7024167410       -1.7491625250        1.2934536609
SI         2.0429608448       -0.7508385295        1.7009610140
SI         1.5362702649        2.2819304177       -0.2517431302
SI         2.2891495555        1.0825175085        1.0872837256
SI         1.0622719283       -2.5141063153       -0.3808885767
SI         0.4955678984        0.8778819683       -2.5647487568
SI         1.3038902637        1.3947765581       -1.9726820921
SI         0.7538751971       -0.2175515830       -2.6308224715
SI         1.0666847540       -2.0898079989       -1.4253968864
SI         1.8707034308       -1.9981461633        0.2118343120
SI         2.2938600352        1.5077377737        0.0431240281
SI         2.5479089488       -0.0128916240        1.0222069834
SI         1.7203870012       -0.3832957057       -2.0755672200
SI         2.3749570258       -1.2491500260       -0.4623789316
SI         2.5506767248        0.6758016394       -0.6722857566
SI         2.0627149881        0.6200827897       -1.6659764901
SI         1.8746292126       -1.3061911218       -1.4813485033
SI         2.7087662438       -0.2705381614       -0.0629694087
SI        -2.3498660923        1.0313691266       -0.5627806364
SI        -1.9360465936       -1.4454537939        1.0318401045
SI        -1.0402246094        1.1807198951        2.1038148445
SI        -2.3612078426        0.3398412631        1.1406121720
SI        -1.9176472832       -0.3264261202       -1.7241255826
SI        -1.6619063919       -1.8571643729       -0.7386032332
SI        -1.0219284188        2.2992860810       -0.6523177879
SI        -0.2125218216        2.3916074179        0.9957580783
SI         0.2012294796       -0.0847257690        2.5901309721
SI        -0.3524242527       -1.7078258262        1.9276013959
SI         0.0918578139       -2.3744241586       -0.9369613872
SI        -0.3219825453        0.1026955742       -2.5317891231
SI         0.9008181687       -2.2821714257        0.7102310470
SI         0.2313688005        1.7248593736       -1.8696362686
SI         1.7968080467        0.3444218254        1.7824143457
SI         1.5412040715        1.8743154506        0.7973684630
SI         0.9156555109       -1.1635645769       -2.0448479935
SI         1.8121642818        1.4645526689       -0.9720562956
SI         2.2262379551       -1.0140945708        0.6238666501
SI        -0.0628074222        0.0090409275        0.0303284275
SI         2.2118940167       -0.3183932732       -1.0683871394
SI        -2.0945049366       -0.4628943213       -0.1754501255
SI        -1.1235046737       -0.3521598491        1.8015758104
SI        -1.4303215455        1.4841206340        0.6193214909
SI        -1.1010853990        0.9899353594       -1.5049689286
SI         0.4699878352        1.1691731168        1.6939154192
SI        -0.6046873981       -1.9812209255        0.4079355218
SI        -0.5917074776       -1.1514663737       -1.6349359194
SI         0.4828059236        1.9985113527       -0.3491323450
SI         0.9791497218       -0.9723008927        1.5636131877
SI         1.0015078440        0.3686265216       -1.7399450156
SI         1.3076407767       -1.4637536474       -0.5601920704
SI         1.9703876913        0.4791639134        0.2329191322
SI        -1.7805392265        0.5159679935        0.2239574354
SI        -1.6254877488       -0.4120056824        0.8214080401
SI        -1.2898509108        0.5719256350        1.2230381579
SI        -1.3635885163       -1.2350892552        0.1172998952
SI        -0.4849252100        1.3406981280        1.1687315020
SI        -1.6144325876        0.2662662990       -0.8493043180
SI        -0.3298849732        0.4127865636        1.7661481893
SI        -1.2787915784        1.2501419332       -0.4476911362
SI        -0.8729160821       -1.1791384448        1.1163465874
SI        -1.3568091564       -0.8158510489       -0.9151151152
SI        -0.0723461133       -0.6693481178        1.7002121680
SI        -0.4782023018        1.7597575196        0.1362509816
SI        -0.8549098188       -0.0815115092       -1.5868129161
SI        -0.6040435701       -1.5830845643       -0.6200653700
SI         0.4819484260        1.6004772524        0.6794517455
SI         0.1895822709       -1.4925678171        0.9958762878
SI        -0.3120451344        1.5098960750       -0.9372141958
SI         0.7327088977        0.0995981310        1.6457906272
SI         1.2347778307        0.8336997131        0.9744326558
SI         0.3559498005       -1.7425919697       -0.0772210667
SI        -0.0499812123        0.6871217401       -1.6415320703
SI         0.3612378005       -1.3236560646       -1.1090644633
SI         0.7491274900        1.1973357424       -1.0572693508
SI         0.2060416045       -0.3947259683       -1.7071379414
SI         1.4911677179       -0.2481306963        0.9096256358
SI         1.2403068224        1.2533752925       -0.0571245681
SI         1.1551648617       -1.2331201365        0.5075577434
SI        -0.7378394318        0.7375667426        0.3210407901
SI        -1.0659014423       -0.2241291288       -0.0715224549
SI        -0.5862965278       -0.1694337269        0.9049965298
SI         0.2001530602        0.5820584849        0.8520709594
SI        -0.5758044698        0.4935338512       -0.7278698754
SI        -0.3306280575       -0.9739347049        0.2169265770
SI         0.4599433444        0.1878996221       -0.8446736044
SI         0.9400741852        0.2426749136        0.1329635547
SI         0.6116465986       -0.7201322973       -0.2600508277
SI        -0.3240202494       -0.5641421060       -0.7921451892
SI         0.2066834595        0.9916321848       -0.1570904564
SI         0.4518317420       -0.4756430317        0.7876096553
SI         1.6512074096       -0.4984665258       -0.1587275598
SI         1.4955282792        0.4334447270       -0.7587578362
SI         1.1584685325       -0.5546671764       -1.1621049016
