    52
 Energy=    -34.6022075798419
HH           -7.0420154880       -1.2780732090        0.6823305425
CH           -6.1547920990       -1.8991261900        0.7998591282
HH           -6.4363211540       -2.8599283330        1.2290253030
HH           -5.6893902180       -2.0582289110       -0.1720864302
C            -5.1696238150       -1.2117405160        1.7187302900
O            -5.4405190170       -0.1120480710        2.2019187430
N            -4.0303966970       -1.8612665700        1.9543460100
H            -3.8989162930       -2.7536534730        1.4996245310
CA           -2.9344503000       -1.3752051340        2.8009332860
HA           -2.9767218720       -0.2852054216        2.8476509230
CB           -3.1336136880       -1.9232717200        4.2222895690
HB           -3.0916198480       -3.0136129650        4.2120801690
HB           -2.3512190310       -1.5429472450        4.8804745740
HB           -4.1023108170       -1.6053249950        4.6104320200
C            -1.5478066720       -1.7579674950        2.2380410090
O            -1.4170936210       -2.7205290380        1.4740301050
N            -0.5106190615       -1.0067219550        2.6342510000
H            -0.7055940350       -0.2534741703        3.2802460550
CA            0.8962459492       -1.1943697850        2.2413228340
HA            1.4245225600       -0.3001870620        2.5767935910
CB            1.4899102310       -2.3697655960        3.0366536550
HB            1.0344062910       -3.3078273660        2.7172871040
HB            1.3076815890       -2.2264634390        4.1025563440
HB            2.5667046290       -2.4226933910        2.8711423910
C             1.1483892720       -1.2518066110        0.7108509194
O             2.0687919910       -1.9292457360        0.2410484263
N             0.3307000586       -0.5402777348       -0.0766970009
H            -0.4040935238       -0.0081991905        0.3672396835
CA            0.3637891677       -0.5613454852       -1.5451215150
HA            0.5142732321       -1.5924102530       -1.8702616120
CB           -1.0138907410       -0.1106703627       -2.0485835600
HB           -1.2011939660        0.9233784924       -1.7547519720
HB           -1.0482128730       -0.1818816814       -3.1365780300
HB           -1.7910218200       -0.7528101411       -1.6311248460
C             1.5017372560        0.2800756150       -2.1726827000
O             1.8317385690        0.0772340721       -3.3462216460
N             2.1096811840        1.1917824910       -1.3971767990
H             1.7732318520        1.2723798470       -0.4494315779
CA            3.1505989840        2.1481306640       -1.8088699630
HA            3.3282159320        2.8036043530       -0.9542867807
CB            4.4665814450        1.3820330440       -2.0409027320
HB            5.2955350060        2.0816768710       -2.1515688110
HB            4.6749271040        0.7356773446       -1.1869581260
HB            4.3966310960        0.7727159518       -2.9425393830
C             2.7476086100        3.0943205810       -2.9734869490
O             1.6073972150        3.0872160750       -3.4545035870
N             3.6793168960        3.9596068660       -3.3996746040
H             4.5856726980        3.9248048850       -2.9523312090
CH            3.4862274220        4.9440507290       -4.4661989330
HH            2.6838208080        5.6349203310       -4.1989428400
HH            4.4043528920        5.5141383400       -4.6214273520
HH            3.2227470090        4.4405324920       -5.3987492480
    52
 Energy=    -32.2662049080383
HH           -6.9662604190       -0.9821618848        0.6129090256
CH           -6.1101625980       -1.6386781820        0.7637997246
HH           -6.4383120960       -2.5628942650        1.2378530930
HH           -5.6514527000       -1.8669239210       -0.1974909379
C            -5.0944624810       -0.9556404235        1.6521632700
O            -5.3128207860        0.1779441085        2.0805131080
N            -3.9882012870       -1.6469343740        1.9233399050
H            -3.8991553440       -2.5656149160        1.5128371170
CA           -2.8714796490       -1.1736264850        2.7497666770
HA           -2.8616719780       -0.0818670318        2.7441291140
CB           -3.0986559190       -1.6427266100        4.1949745280
HB           -3.1088185810       -2.7330626380        4.2371304730
HB           -2.2999231250       -1.2689889210        4.8371139000
HB           -4.0516071410       -1.2606950290        4.5638323530
C            -1.5039149780       -1.6485851650        2.2109705110
O            -1.4182403280       -2.6518439130        1.4944308890
N            -0.4326039213       -0.9293458660        2.5744505480
H            -0.5923025039       -0.1375847977        3.1830012490
CA            0.9642779675       -1.2024587360        2.1962507260
HA            1.5341433940       -0.3193069978        2.4903169310
CB            1.4999835970       -2.3650639070        3.0494450760
HB            1.0006531180       -3.2946824150        2.7739046680
HB            1.3232606350       -2.1619826490        4.1065267820
HB            2.5732632210       -2.4771654830        2.8907287200
C             1.2155767390       -1.3455856320        0.6712719479
O             2.1033751260       -2.0877375140        0.2380506497
N             0.4337459880       -0.6348017246       -0.1526816869
H            -0.2764260791       -0.0487948666        0.2627414852
CA            0.4643793695       -0.7319623384       -1.6182783250
HA            0.5642516494       -1.7844330650       -1.8900626780
CB           -0.8911705518       -0.2419920125       -2.1450576570
HB           -1.0291048690        0.8132298381       -1.9037575030
HB           -0.9310057666       -0.3665423149       -3.2280971900
HB           -1.6972156150       -0.8246689250       -1.6962738850
C             1.6406746660        0.0203368481       -2.2877435450
O             1.9579328260       -0.2647524127       -3.4455635450
N             2.2864429840        0.9434267092       -1.5576279680
H             1.9466145870        1.0720942810       -0.6159836409
CA            3.3737911400        1.8438948440       -1.9753944720
HA            3.5627810690        2.4995542410       -1.1231576670
CB            4.6709568460        1.0429157080       -2.1696065530
HB            5.4987305730        1.7281800700       -2.3566056730
HB            4.8883969070        0.4638231844       -1.2710967110
HB            4.5753143260        0.3659017671       -3.0189961200
C             3.0371723580        2.7778390560       -3.1672387270
O             2.8940707770        2.3478576350       -4.3172805880
N             2.9551279350        4.0884593890       -2.8951695800
H             3.0963859100        4.3776128660       -1.9361199520
CH            2.6706149580        5.1329360730       -3.8812842570
HH            1.7001819740        4.9537560460       -4.3490169190
HH            2.6524003920        6.1113264520       -3.3970408360
HH            3.4404679880        5.1380161010       -4.6558258570
    52
 Energy=    -35.9281441273787
HH           -6.8886780780       -0.5293037886        0.6927235388
CH           -6.0669576030       -1.2415080160        0.7577342499
HH           -6.4394863190       -2.1953372760        1.1292411980
HH           -5.6277493790       -1.3829615690       -0.2290159014
C            -5.0105923400       -0.7158349905        1.7038509490
O            -5.1663674410        0.3718380313        2.2596141430
N            -3.9399927650       -1.4888860480        1.8811829070
H            -3.9020020060       -2.3587189330        1.3689702210
CA           -2.7941982170       -1.1695644970        2.7409845000
HA           -2.7277142240       -0.0861099049        2.8583397750
CB           -3.0349369120       -1.7871604860        4.1269507820
HB           -3.1014101250       -2.8733245400        4.0460669990
HB           -2.2132345820       -1.5295944150        4.7966241850
HB           -3.9640589900       -1.4014567760        4.5489531030
C            -1.4571097550       -1.6492831130        2.1342048580
O            -1.4289007130       -2.5677559420        1.3078223220
N            -0.3472469435       -1.0313830570        2.5626004990
H            -0.4611382846       -0.3067040420        3.2587281380
CA            1.0307744820       -1.3305703750        2.1378368470
HA            1.6478958990       -0.5165336542        2.5221321680
CB            1.5114541530       -2.6080756610        2.8474061210
HB            0.9624629537       -3.4738893720        2.4753589150
HB            1.3532036580       -2.5173271580        3.9228666920
HB            2.5762739690       -2.7559072320        2.6630310530
C             1.2632930800       -1.3125645070        0.6033475586
O             2.1081361170       -2.0449789020        0.0775699838
N             0.5135105777       -0.4742150966       -0.1249561317
H            -0.1620004115        0.0965645935        0.3631807132
CA            0.5310872818       -0.4042577332       -1.5920762430
HA            0.5722716631       -1.4221702850       -1.9840906840
CB           -0.7975609441        0.2165078539       -2.0445640650
HB           -0.8775551924        1.2419676630       -1.6801196120
HB           -0.8484430641        0.2219014231       -3.1343411530
HB           -1.6324366890       -0.3707375996       -1.6587881280
C             1.7438207950        0.3553620801       -2.1810591290
O             2.0369310260        0.2109422413       -3.3717793010
N             2.4473823730        1.1533107830       -1.3630042910
H             2.1404714090        1.2080954830       -0.4024499084
CA            3.6334260310        1.9453106750       -1.7280148640
HA            3.8214622450        2.6110455900       -0.8839398013
CB            4.8539422290        1.0136116250       -1.8210335810
HB            5.7631689440        1.6051232480       -1.9347900210
HB            4.9367245710        0.4180129547       -0.9109407811
HB            4.7533465300        0.3474110097       -2.6785370280
C             3.4442907250        2.8946329110       -2.9424273760
O             4.3894768240        3.1624904330       -3.6942160890
N             2.2208725560        3.4076158980       -3.1432319240
H             1.4988053440        3.1477977900       -2.4854118270
CH            1.8544251660        4.3064870150       -4.2388995790
HH            2.0272994720        3.8164018650       -5.1993417190
HH            0.7989342415        4.5760007900       -4.1662277610
HH            2.4546269640        5.2176828130       -4.1940655210
    52
 Energy=    -35.9281441273833
HH           -6.8886795535       -0.5293066599        0.6927252029
CH           -6.0669582571       -1.2415100154        0.7577350308
HH           -6.4394857497       -2.1953399190        1.1292415589
HH           -5.6277503824       -1.3829624516       -0.2290154346
C            -5.0105930757       -0.7158364146        1.7038515013
O            -5.1663686333        0.3718365373        2.2596147064
N            -3.9399930604       -1.4888869059        1.8811832563
H            -3.9020019532       -2.3587197806        1.3689705791
CA           -2.7941985042       -1.1695647235        2.7409846039
HA           -2.7277149113       -0.0861100757        2.8583396075
CB           -3.0349367506       -1.7871605038        4.1269510601
HB           -3.1014096640       -2.8733245931        4.0460675047
HB           -2.2132343644       -1.5295940543        4.7966242505
HB           -3.9640588649       -1.4014569923        4.5489534854
C            -1.4571099492       -1.6492829813        2.1342048778
O            -1.4289006822       -2.5677560016        1.3078225601
N            -0.3472473104       -1.0313823921        2.5626001996
H            -0.4611388223       -0.3067032327        3.2587276589
CA            1.0307741637       -1.3305692703        2.1378364079
HA            1.6478952981       -0.5165321405        2.5221313157
CB            1.5114545482       -2.6080740894        2.8474060300
HB            0.9624635443       -3.4738881477        2.4753593574
HB            1.3532043812       -2.5173252153        3.9228666170
HB            2.5762743591       -2.7559053398        2.6630306614
C             1.2632924649       -1.3125638037        0.6033470835
O             2.1081354187       -2.0449783101        0.0775695290
N             0.5135098342       -0.4742145472       -0.1249566477
H            -0.1620011547        0.0965651666        0.3631801703
CA            0.5310866310       -0.4042571600       -1.5920767514
HA            0.5722709185       -1.4221697153       -1.9840911900
CB           -0.7975614843        0.2165085894       -2.0445646729
HB           -0.8775555673        1.2419684603       -1.6801203589
HB           -0.8484435955        0.2219020097       -3.1343417610
HB           -1.6324373304       -0.3707366752       -1.6587886702
C             1.7438203215        0.3553624734       -2.1810595137
O             2.0369303781        0.2109429207       -3.3717797612
N             2.4473822876        1.1533106438       -1.3630044800
H             2.1404713911        1.2080952223       -0.4024500685
CA            3.6334264025        1.9453099438       -1.7280148434
HA            3.8214629740        2.6110445904       -0.8839396481
CB            4.8539420661        1.0136102126       -1.8210337379
HB            5.7631691254        1.6051213368       -1.9347900309
HB            4.9367240378        0.4180112673       -0.9109410826
HB            4.7533459899        0.3474098657       -2.6785373480
C             3.4442916688        2.8946324956       -2.9424271857
O             4.3894778905        3.1624894699       -3.6942159388
N             2.2208738359        3.4076163389       -3.1432315610
H             1.4988064888        3.1477986013       -2.4854114684
CH            1.8544269736        4.3064877810       -4.2388991178
HH            2.0272990461        3.8164018362       -5.1993412510
HH            0.7989367130        4.5760038279       -4.1662260768
HH            2.4546307701        5.2176823215       -4.1940662163
    52
 Energy=    -35.6025171972006
HH           -6.3248318158       -0.2142777889        0.0393117812
CH           -5.7897849695       -1.0569476657        0.4755699887
HH           -6.4732073412       -1.6469135612        1.0850503740
HH           -5.3814062707       -1.6805281068       -0.3187725308
C            -4.6594992579       -0.5491888505        1.3426336286
O            -4.4671268453        0.6614352367        1.4575118238
N            -3.9146800450       -1.4764830731        1.9434260433
H            -4.1450487672       -2.4433244590        1.7665299144
CA           -2.7648049966       -1.2111274897        2.8162781480
HA           -2.6725485831       -0.1342525232        2.9687984253
CB           -3.0367636115       -1.8441637332        4.1880701771
HB           -3.1259058987       -2.9272368306        4.0895918015
HB           -2.2173452427       -1.6154396285        4.8709626203
HB           -3.9625153825       -1.4435665627        4.6038196248
C            -1.4335964481       -1.6978204297        2.2030206678
O            -1.4122072089       -2.6197553795        1.3802525728
N            -0.3194205849       -1.0814724958        2.6225426438
H            -0.4262496468       -0.3563065585        3.3192459435
CA            1.0532609876       -1.3746810012        2.1769206678
HA            1.6739252369       -0.5616579915        2.5576357364
CB            1.5472052353       -2.6558059318        2.8706570101
HB            0.9953189191       -3.5205456776        2.5004551840
HB            1.4040160133       -2.5728943835        3.9488529805
HB            2.6096695181       -2.7994809905        2.6701351523
C             1.2625816023       -1.3457704725        0.6391555590
O             2.1058365621       -2.0675718223        0.0964679757
N             0.4937785616       -0.5105808155       -0.0728500760
H            -0.1786780498        0.0516699027        0.4291636328
CA            0.4830161639       -0.4358991301       -1.5396783732
HA            0.5306704946       -1.4519541446       -1.9357649567
CB           -0.8626037097        0.1676748218       -1.9646870650
HB           -0.9496427708        1.1909535714       -1.5957712949
HB           -0.9346702582        0.1752192783       -3.0532451162
HB           -1.6817921519       -0.4319024607       -1.5644464648
C             1.6741339391        0.3417765786       -2.1488637931
O             1.9437697906        0.2085138331       -3.3464128055
N             2.3854514931        1.1426981741       -1.3404810274
H             2.0984723850        1.1874316590       -0.3732675221
CA            3.5540743815        1.9511456790       -1.7251139718
HA            3.7520980844        2.6135812967       -0.8807270794
CB            4.7832535905        1.0347088326       -1.8501771748
HB            5.6828208351        1.6377616171       -1.9791187388
HB            4.8923370288        0.4342442389       -0.9460742151
HB            4.6723709951        0.3729407895       -2.7098417406
C             3.3280633988        2.9060136557       -2.9288312083
O             4.2538979302        3.1900477649       -3.6985506644
N             2.0946903057        3.4056187390       -3.1003270818
H             1.3898260887        3.1329124134       -2.4292020108
CH            1.6945326503        4.3071374977       -4.1819355579
HH            0.6377041047        4.5635283679       -4.0852035670
HH            2.2847356054        5.2251363012       -4.1436241279
HH            1.8528182493        3.8253995096       -5.1490919152
    52
 Energy=    -36.7091838691010
HH           -4.4597271203        0.7835456901       -0.7726474950
CH           -4.6851600675        0.0118567770       -0.0375341723
HH           -5.6106431812        0.2598296768        0.4806542991
HH           -4.7958606974       -0.9486147449       -0.5393343254
C            -3.5591725537       -0.0771196197        0.9669939014
O            -2.5808218893        0.6639177006        0.8690185504
N            -3.6877916711       -0.9881835345        1.9308201373
H            -4.5170906801       -1.5633808052        1.9365065364
CA           -2.6773129854       -1.2225790011        2.9651716753
HA           -2.4501762622       -0.2659811986        3.4402362404
CB           -3.2669631588       -2.1460125111        4.0394533869
HB           -3.5222805063       -3.1136340156        3.6043523338
HB           -2.5360128533       -2.2959309582        4.8353681010
HB           -4.1638561235       -1.6943144974        4.4659040069
C            -1.3680555826       -1.7864774617        2.3707278966
O            -1.3894830615       -2.7384492364        1.5829496937
N            -0.2294474453       -1.1950562815        2.7569205390
H            -0.3044043657       -0.4387468136        3.4236892132
CA            1.1247269322       -1.5242033892        2.2835719875
HA            1.7710940709       -0.7235127077        2.6471946356
CB            1.6025308661       -2.8113114166        2.9776284304
HB            1.0284124480       -3.6667124939        2.6198408112
HB            1.4764684839       -2.7199924228        4.0573012082
HB            2.6589608534       -2.9779142094        2.7635326454
C             1.3165727012       -1.5139345013        0.7419099201
O             2.2333374257       -2.1565039792        0.2191735398
N             0.4705379939       -0.7828312969        0.0018566504
H            -0.2711347993       -0.2873636961        0.4778860855
CA            0.4832023929       -0.7388934071       -1.4669396402
HA            0.6861886114       -1.7446895786       -1.8393546180
CB           -0.9225675449       -0.3455770189       -1.9399062312
HB           -1.1615511503        0.6656984307       -1.6075827752
HB           -0.9671826980       -0.3805375320       -3.0292870265
HB           -1.6587781563       -1.0428719965       -1.5373236247
C             1.5658802763        0.1895119141       -2.0671015217
O             1.8752743255        0.0795603492       -3.2574090842
N             2.1423286384        1.0926406313       -1.2589535548
H             1.8327440655        1.1097663279       -0.2978610320
CA            3.1913590536        2.0538577419       -1.6366220591
HA            3.2787809097        2.7476850653       -0.7987721621
CB            4.5399437349        1.3196185703       -1.7294407673
HB            5.3471191970        2.0426214579       -1.8529668038
HB            4.7172445884        0.7515509304       -0.8152620730
HB            4.5389678167        0.6386263717       -2.5812070138
C             2.8533012342        2.9525530172       -2.8572329139
O             3.7429472872        3.3568202622       -3.6157803668
N             1.5645885433        3.2689053619       -3.0557188972
H             0.8937946905        2.9062385558       -2.3923149033
CH            1.0595212772        4.0912209864       -4.1563468021
HH           -0.0246379843        4.1951361079       -4.0803410143
HH            1.5119890051        5.0844924973       -4.1215557665
HH            1.3022954165        3.6256757011       -5.1138657803
    52
 Energy=    -36.7091838691009
HH           -4.4597304068        0.7835440759       -0.7726471279
CH           -4.6851619541        0.0118544590       -0.0375341153
HH           -5.6106453593        0.2598256374        0.4806546561
HH           -4.7958611366       -0.9486170246       -0.5393346593
C            -3.5591740737       -0.0771206099        0.9669936607
O            -2.5808239660        0.6639173564        0.8690176425
N            -3.6877922623       -0.9881841263        1.9308203890
H            -4.5170908436       -1.5633820071        1.9365073092
CA           -2.6773129976       -1.2225784804        2.9651716053
HA           -2.4501762717       -0.2659802186        3.4402352453
CB           -3.2669623872       -2.1460112190        4.0394544070
HB           -3.5222796952       -3.1136331777        3.6043543356
HB           -2.5360116307       -2.2959287641        4.8353688765
HB           -4.1638552526       -1.6943130563        4.4659050856
C            -1.3680557403       -1.7864770698        2.3707276361
O            -1.3894834317       -2.7384487900        1.5829493716
N            -0.2294474767       -1.1950560876        2.7569202172
H            -0.3044042129       -0.4387466487        3.4236889460
CA            1.1247268199       -1.5242034458        2.2835716009
HA            1.7710941214       -0.7235128835        2.6471942257
CB            1.6025305688       -2.8113115573        2.9776280228
HB            1.0284120608       -3.6667125586        2.6198403750
HB            1.4764681676       -2.7199925731        4.0573007990
HB            2.6589605444       -2.9779144904        2.7635322878
C             1.3165725016       -1.5139345429        0.7419095276
O             2.2333370355       -2.1565042110        0.2191730492
N             0.4705379270       -0.7828310807        0.0018563658
H            -0.2711347241       -0.2873633582        0.4778858903
CA            0.4832023214       -0.7388929912       -1.4669399155
HA            0.6861881987       -1.7446891782       -1.8393550433
CB           -0.9225675110       -0.3455760913       -1.9399064134
HB           -1.1615509035        0.6656992977       -1.6075826155
HB           -0.9671826538       -0.3805362275       -3.0292872200
HB           -1.6587782974       -1.0428710318       -1.5373240593
C             1.5658805149        0.1895120688       -2.0671016676
O             1.8752745522        0.0795605456       -3.2574092362
N             2.1423291432        1.0926405360       -1.2589536023
H             1.8327446488        1.1097661737       -0.2978610550
CA            3.1913596844        2.0538575289       -1.6366220646
HA            3.2787816408        2.7476848146       -0.7987721473
CB            4.5399442786        1.3196182110       -1.7294408374
HB            5.3471198104        2.0426210106       -1.8529668977
HB            4.7172451218        0.7515505648       -0.8152621457
HB            4.5389682562        0.6386260235       -2.5812070928
C             2.8533019299        2.9525528842       -2.8572328693
O             3.7429479485        3.3568197457       -3.6157805674
N             1.5645893077        3.2689057077       -3.0557185315
H             0.8937954971        2.9062392701       -2.3923142932
CH            1.0595220669        4.0912214789       -4.1563463291
HH           -0.0246372018        4.1951365193       -4.0803405543
HH            1.5119897401        5.0844930079       -4.1215550861
HH            1.3022962835        3.6256763830       -5.1138653798
    52
 Energy=    -32.2598697288432
HH           -6.2844232752       -4.1020035140        1.6440173538
CH           -5.5488004367       -3.8093668287        0.8958298911
HH           -4.9226765684       -4.6656241929        0.6481420332
HH           -6.0592669931       -3.4590951984       -0.0004919535
C            -4.6821614859       -2.7026475926        1.4538717268
O            -4.6379109572       -1.6078539692        0.8916758133
N            -3.9953176913       -2.9863000393        2.5596532871
H            -4.0858587520       -3.9134881107        2.9472300628
CA           -3.0871352365       -2.0499341397        3.2288317308
HA           -3.5939920524       -1.0860475790        3.3091248337
CB           -2.8249571785       -2.5556621989        4.6541755139
HB           -2.3163087801       -3.5205315885        4.6213415323
HB           -2.1975777403       -1.8420085242        5.1900649092
HB           -3.7693360822       -2.6635255444        5.1898425015
C            -1.7716601191       -1.8215383587        2.4474017690
O            -1.3028967363       -2.7103566483        1.7286099004
N            -1.1687067916       -0.6402067175        2.6458980178
H            -1.6268494438       -0.0120122634        3.2914510396
CA            0.0390367751       -0.1118010533        1.9902889245
HA            0.1496931874        0.9129292552        2.3504317150
CB            1.2819015633       -0.8599625582        2.4983536824
HB            1.2605544847       -1.8993295366        2.1690882608
HB            1.3144566610       -0.8292757385        3.5883283224
HB            2.1816129270       -0.3844485700        2.1054920531
C            -0.0367771107       -0.0172388663        0.4448133302
O            -0.0310704009       -1.0204153632       -0.2748420864
N            -0.0479535039        1.2155949161       -0.0785980348
H            -0.0558677583        2.0039213273        0.5543300817
CA           -0.1347839854        1.5015199116       -1.5176619048
HA           -0.8826470518        0.8384793131       -1.9566231220
CB           -0.6355839946        2.9430949450       -1.6791090256
HB            0.0885633775        3.6426606535       -1.2583611482
HB           -0.7727893417        3.1679851740       -2.7378262160
HB           -1.5929169249        3.0632972234       -1.1696451746
C             1.1850477879        1.2712299710       -2.2924320346
O             1.1599228735        1.1439120618       -3.5203197371
N             2.3270959653        1.2125978559       -1.5899541083
H             2.2542355064        1.3237316577       -0.5889159024
CA            3.6747027237        0.9846211629       -2.1366707586
HA            4.3690171802        1.1927450582       -1.3207985860
CB            3.8381636171       -0.5081580837       -2.4700920833
HB            4.8771668201       -0.7184379471       -2.7265382850
HB            3.5625217853       -1.1140163140       -1.6058797473
HB            3.2020473558       -0.7761360446       -3.3143680282
C             4.0994053913        1.9562620390       -3.2712623736
O             4.8646215918        1.5885416070       -4.1710012867
N             3.6038876228        3.2026740641       -3.2373989581
H             2.9882430565        3.4329077000       -2.4695410491
CH            3.8827050114        4.2464895130       -4.2250464532
HH            3.5504458456        3.9246771493       -5.2142686882
HH            3.3566264857        5.1653467691       -3.9587310987
HH            4.9545510986        4.4522035523       -4.2619104474
    52
 Energy=    -36.6039294733353
HH           -0.8456662347       -5.1953383759       -0.3606912098
CH           -0.8336889941       -4.2018122236       -0.8071954182
HH            0.1974631465       -3.8816352958       -0.9502331302
HH           -1.3441933477       -4.2276557665       -1.7692215668
C            -1.5369860641       -3.2325299001        0.1162647564
O            -2.5516866997       -2.6456405131       -0.2589185899
N            -0.9979915722       -3.0636544063        1.3226189508
H            -0.1614761736       -3.5826926309        1.5444528342
CA           -1.5141362540       -2.1337966189        2.3317551396
HA           -2.6020998925       -2.2235771139        2.3553310716
CB           -0.9841378044       -2.5584169549        3.7080444446
HB            0.1041419933       -2.4810028900        3.7303698455
HB           -1.4019574830       -1.9111308362        4.4804678590
HB           -1.2770190702       -3.5884197969        3.9171178554
C            -1.1735752632       -0.6612606069        2.0120450605
O            -0.1470587267       -0.3688144715        1.3892515957
N            -2.0224222665        0.2675407117        2.4704418080
H            -2.8309985889       -0.0565688966        2.9823285428
CA           -1.8974642785        1.7195846138        2.2824604717
HA           -2.8734784526        2.1511880024        2.5113235571
CB           -0.9291170277        2.2887395299        3.3352825046
HB            0.0699016110        1.8704823243        3.2033655990
HB           -1.2856893625        2.0355654200        4.3348075325
HB           -0.8833118207        3.3754906733        3.2483254688
C            -1.6142176943        2.1298844177        0.8149005321
O            -2.4959306127        2.0059898795       -0.0405300807