    52
Energy=    -38.6587951459709    
HH        -5.603670525        -6.401358713         2.330503624    
CH        -5.050672374        -5.692300493         2.945392769    
HH        -4.067111754        -6.099311144         3.176712569    
HH        -5.594908562        -5.509953219         3.871200483    
C         -4.887319598        -4.388168001         2.197150871    
O         -5.351936508        -4.262647301         1.063593504    
N         -4.229051830        -3.418551080         2.830745069    
H         -3.875967944        -3.614392221         3.755447473    
CA        -3.953120649        -2.097061513         2.258729398    
HA        -4.870500192        -1.728093052         1.795478910    
CB        -3.591055061        -1.136712176         3.400129232    
HB        -3.439145039       -0.1317984170         3.003680553    
HB        -4.400365594        -1.106408766         4.131219149    
HB        -2.673735161        -1.466932831         3.890265494    
C         -2.860840394        -2.127482410         1.164535721    
O         -1.987301285        -3.003653409         1.150789582    
N         -2.892305784        -1.144868546        0.2578517962    
H         -3.619706873       -0.4490138824        0.3353029275    
CA        -1.909610327       -0.9820325661       -0.8184034720    
HA        -1.751047441        -1.955488578        -1.287122695    
CB        -2.501302509       -0.4606171536E-01    -1.881281440    
HB        -3.446992781       -0.4492828514        -2.246716428    
HB        -2.671218397        0.9442064640        -1.455462349    
HB        -1.810828135        0.4318108729E-01    -2.721179713    
C        -0.5372727276       -0.4815883855       -0.3108223694    
O        -0.4379968973        0.1716333602        0.7351092661    
N         0.5248631390       -0.7659926305        -1.071948748    
H         0.3745570533        -1.286487022        -1.923950390    
CA         1.893470232       -0.3303585453       -0.7757793687    
HA         2.093169511       -0.5239077300        0.2802170463    
CB         2.866382103        -1.187838462        -1.596714597    
HB         3.894596808       -0.9212167951        -1.348062810    
HB         2.704871938        -1.020637053        -2.662911556    
HB         2.713733082        -2.244015279        -1.369460184    
C          2.111108174         1.181034475        -1.020463779    
O          1.412023244         1.808942115        -1.825220969    
N          3.105837231         1.762189681       -0.3414646542    
H          3.652167350         1.189895348        0.2856581612    
CA         3.490381755         3.170450604       -0.4824588956    
HA         2.581801060         3.776017502       -0.4702607545    
CB         4.329966528         3.570269539        0.7387317869    
HB         5.254893108         2.991715876        0.7629511738    
HB         3.765234805         3.387016311         1.654133293    
HB         4.576731705         4.631595827        0.6863509824    
C          4.226604731         3.464711010        -1.811140298    
O          4.851907735         2.579183807        -2.408364840    
N          4.175039691         4.725674929        -2.262352909    
H          3.654396794         5.396879934        -1.712964309    
CH         4.816913945         5.202817770        -3.488542378    
HH         5.897073098         5.053198970        -3.429629741    
HH         4.616082485         6.266953759        -3.627609168    
HH         4.431177336         4.656046217        -4.351592019    
    52
Energy=    -37.8890940153594    
HH        -6.121891418        -5.906125957         3.046625668    
CH        -5.058158061        -5.699881756         2.937180226    
HH        -4.581933603        -6.496792176         2.367810281    
HH        -4.601296600        -5.643889389         3.924651845    
C         -4.883596204        -4.392246443         2.194907287    
O         -5.337589116        -4.273017307         1.056596614    
N         -4.233837938        -3.415115213         2.827429404    
H         -3.886995547        -3.600842757         3.756384809    
CA        -3.958896393        -2.096683516         2.247593269    
HA        -4.874268799        -1.734779567         1.774881268    
CB        -3.609142977        -1.126378213         3.384421576    
HB        -3.458370694       -0.1238403850         2.981563983    
HB        -4.423951838        -1.093877902         4.109288673    
HB        -2.694117900        -1.449119973         3.883750145    
C         -2.858393977        -2.130650176         1.161751491    
O         -1.980781153        -3.002842087         1.161411281    
N         -2.887554970        -1.155308820        0.2471714670    
H         -3.618682070       -0.4622369779        0.3137315797    
CA        -1.897616981       -0.9963800150       -0.8230150487    
HA        -1.731132619        -1.972736903        -1.282870248    
CB        -2.485633441       -0.7150773486E-01    -1.897584674    
HB        -3.426730023       -0.4819385480        -2.266832512    
HB        -2.663224004        0.9212735108        -1.480845597    
HB        -1.789338006        0.1433314781E-01    -2.733020061    
C        -0.5313922278       -0.4856471440       -0.3092285134    
O        -0.4428794410        0.1761373923        0.7322768171    
N         0.5376593998       -0.7710362949        -1.060236638    
H         0.3960702282        -1.298829619        -1.909236130    
CA         1.902020557       -0.3267719050       -0.7573712544    
HA         2.094752686       -0.5111664482        0.3015539359    
CB         2.884918487        -1.186099440        -1.564360650    
HB         3.910026640       -0.9127884978        -1.310205730    
HB         2.730570835        -1.027953816        -2.632997428    
HB         2.735419850        -2.241171040        -1.329989523    
C          2.114551941         1.183662716        -1.012250654    
O          1.418596827         1.802040601        -1.827037176    
N          3.101541802         1.774688958       -0.3304837410    
H          3.645812583         1.209831443        0.3051150040    
CA         3.480675501         3.183576158       -0.4796391946    
HA         2.569268140         3.785003628       -0.4788915061    
CB         4.309330070         3.596775479        0.7445594805    
HB         5.236688610         3.022719312        0.7801368348    
HB         3.738660169         3.418039737         1.657167268    
HB         4.551619053         4.658793701        0.6857068070    
C          4.225391472         3.470891931        -1.805103467    
O          4.859157545         2.583648916        -2.390748271    
N          4.171410055         4.728052621        -2.266530390    
H          3.643635906         5.401094717        -1.726269524    
CH         4.820183325         5.198604245        -3.491635641    
HH         5.900548534         5.054455889        -3.423572852    
HH         4.615522520         6.260683208        -3.640499638    
HH         4.443373562         4.643348509        -4.353210950    
    52
Energy=    -38.6587951459674    
HH        -5.606344257        -5.504380213         3.862575036    
CH        -5.046679893        -5.694683252         2.947630208    
HH        -5.584365999        -6.416803653         2.334364398    
HH        -4.063347203        -6.090030691         3.199255389    
C         -4.882984760        -4.399544829         2.183999418    
O         -5.331466678        -4.293525248         1.041983463    
N         -4.242511438        -3.415739799         2.813949108    
H         -3.901802415        -3.595883395         3.746452281    
CA        -3.969061544        -2.099870794         2.227955485    
HA        -4.882401628        -1.745162500         1.745963907    
CB        -3.632337656        -1.120935343         3.361294931    
HB        -3.482887903       -0.1202664800         2.953340928    
HB        -4.452821995        -1.087594962         4.079687703    
HB        -2.719787994        -1.436533856         3.869631166    
C         -2.860165293        -2.135861102         1.150776224    
O         -1.979203745        -3.004602234         1.162210586    
N         -2.886171250        -1.166038508        0.2302526602    
H         -3.620466930       -0.4754641175        0.2871876633    
CA        -1.888734451        -1.009493250       -0.8333002175    
HA        -1.714956034        -1.987867057        -1.286116140    
CB        -2.472133889       -0.9325497653E-01    -1.917737017    
HB        -3.408784064       -0.5095420294        -2.291704455    
HB        -2.656756817        0.9012448827        -1.508214391    
HB        -1.769826906       -0.9572769550E-02    -2.748345493    
C        -0.5284622404       -0.4903880907       -0.3121641651    
O        -0.4504727243        0.1778982732        0.7260257473    
N         0.5473937691       -0.7760357777        -1.053292340    
H         0.4143402633        -1.309399504        -1.900188454    
CA         1.907672035       -0.3246542316       -0.7426857170    
HA         2.093016247       -0.5020276477        0.3187546773    
CB         2.900024799        -1.184887564        -1.537039896    
HB         3.922095881       -0.9060696469        -1.276710142    
HB         2.753238833        -1.033670093        -2.607742913    
HB         2.752820443        -2.239131370        -1.297547451    
C          2.116302889         1.185066440        -1.004911266    
O          1.424212165         1.795886574        -1.828641238    
N          3.095757366         1.783971943       -0.3191648088    
H          3.637332536         1.225017535        0.3239111824    
CA         3.470568585         3.193425005       -0.4737975949    
HA         2.556862827         3.791275463       -0.4835733019    
CB         4.288233391         3.617096983        0.7542051645    
HB         5.217506053         3.046894321        0.8002631915    
HB         3.711297147         3.441530473         1.663482104    
HB         4.526856047         4.679688456        0.6908894436    
C          4.224281448         3.475807909        -1.795230358    
O          4.865933937         2.587603134        -2.370742121    
N          4.168968192         4.729996559        -2.264520291    
H          3.634479236         5.404152129        -1.732309019    
CH         4.825265581         5.195828704        -3.487419552    
HH         5.905628167         5.056313722        -3.410266943    
HH         4.617643019         6.256199683        -3.644150259    
HH         4.457205152         4.634016593        -4.348526523    
