    52
Energy=    -38.7747288291118    
HH        -6.702092188        0.2945397367         1.666329112    
CH        -6.068053132        0.2689854071         2.551714918    
HH        -6.665279969       -0.5111856825E-02     3.420540327    
HH        -5.624509420         1.251379150         2.708978650    
C         -4.967574255       -0.7483116074         2.348514285    
O         -4.858930619        -1.704434752         3.116980282    
N         -4.153505734       -0.5437103414         1.313899215    
H         -4.313599614        0.2720460919        0.7419884618    
CA        -3.019442433        -1.407585988        0.9715146622    
HA        -3.353852363        -2.445711692         1.024964015    
CB        -2.612054846        -1.125139246       -0.4813789178    
HB        -1.809900645        -1.801298662       -0.7802407594    
HB        -2.263325961       -0.9571114570E-01   -0.5791945649    
HB        -3.465273651        -1.280939141        -1.143320430    
C         -1.827038670        -1.253842137         1.943482158    
O         -1.640381083       -0.2065950530         2.573682259    
N        -0.9881783140        -2.292893898         2.034617155    
H         -1.198056749        -3.122926566         1.497262251    
CA        0.1884133931        -2.331890324         2.914447300    
HA       -0.9512963457E-01    -1.924444895         3.886609924    
CB        0.5727652647        -3.803670651         3.117469536    
HB        0.8745710314        -4.247529541         2.167364273    
HB       -0.2755733942        -4.357326714         3.522664272    
HB         1.403435219        -3.872754967         3.821259055    
C          1.388729674        -1.495903374         2.406651845    
O          2.310700666        -1.208655618         3.177251062    
N          1.383215567        -1.099414311         1.128141764    
H         0.5919643591        -1.368089788        0.5617217227    
CA         2.407158293       -0.2712663331        0.4819846138    
HA         2.906074418        0.3382972951         1.238013417    
CB         3.452121646        -1.198460730       -0.1568863330    
HB         4.245758702       -0.6053918883       -0.6133038689    
HB         2.983848680        -1.816973737       -0.9242441937    
HB         3.891805222        -1.843565956        0.6050759498    
C          1.797202385        0.6933176139       -0.5594732008    
O         0.6897859537        0.4703563812        -1.062850325    
N          2.528947935         1.760285732       -0.8968469634    
H          3.432811224         1.875114969       -0.4616704095    
CA         2.127923085         2.752815602        -1.899488910    
HA         1.083486457         3.016805228        -1.720881310    
CB         2.968070596         4.020578493        -1.692553935    
HB         2.645074823         4.795872358        -2.388719808    
HB         2.839640739         4.389346783       -0.6737479948    
HB         4.023018269         3.803418972        -1.867821096    
C          2.231157729         2.221635969        -3.349025517    
O          3.018506486         1.313911966        -3.645504105    
N          1.449691918         2.811599556        -4.264199785    
H         0.8407953644         3.555129167        -3.948305348    
CH         1.413373471         2.460858467        -5.685063353    
HH         1.124259607         1.414769199        -5.806350509    
HH         2.397818144         2.609519496        -6.133801322    
HH        0.6896266508         3.088967080        -6.208249529    
    52
Energy=    -38.0042031892904    
HH        -7.042179488       -0.2535434581         2.488467587    
CH        -6.081906430        0.2560910687         2.553261314    
HH        -5.964220457        0.7026711831         3.539548069    
HH        -6.041859717         1.040748959         1.798501869    
C         -4.973651087       -0.7512292482         2.333352936    
O         -4.863149794        -1.711218863         3.096389091    
N         -4.157170955       -0.5424231683         1.300442366    
H         -4.314469927        0.2747329201        0.7300584115    
CA        -3.022746449        -1.405789320        0.9573936817    
HA        -3.357978006        -2.443906425         1.005752602    
CB        -2.611484688        -1.117862524       -0.4933459423    
HB        -1.809107179        -1.793474166       -0.7928612333    
HB        -2.261651789       -0.8834706741E-01   -0.5862143673    
HB        -3.463126515        -1.270385355        -1.158081573    
C         -1.832563449        -1.256875846         1.932855930    
O         -1.646177030       -0.2120097914         2.567066184    
N        -0.9951727963        -2.297245998         2.022468284    
H         -1.204734751        -3.125183594         1.481767049    
CA        0.1791829744        -2.340704912         2.905074374    
HA       -0.1062672714        -1.936217994         3.877914140    
CB        0.5612021637        -3.813646733         3.104036000    
HB        0.8648164490        -4.254647632         2.153176364    
HB       -0.2888274771        -4.367617293         3.505237405    
HB         1.390034350        -3.886163639         3.809644603    
C          1.381793869        -1.504494817         2.403109757    
O          2.302196859        -1.221013126         3.176970634    
N          1.379952217        -1.103658768         1.125945249    
H         0.5897908823        -1.369438429        0.5566453085    
CA         2.406529650       -0.2746061941        0.4851488594    
HA         2.904370627        0.3317129839         1.244488031    
CB         3.451871233        -1.200943034       -0.1543475809    
HB         4.247387605       -0.6073324107       -0.6067716094    
HB         2.984693247        -1.816207821       -0.9249772121    
HB         3.888853926        -1.849232897        0.6064647860    
C          1.800358672        0.6943404583       -0.5544681444    
O         0.6938465363        0.4745934254        -1.061236824    
N          2.534338806         1.761462429       -0.8864573150    
H          3.437312759         1.873587703       -0.4487366631    
CA         2.137050971         2.757936906        -1.886671666    
HA         1.092539625         3.022716128        -1.709677050    
CB         2.978385294         4.023860903        -1.673397272    
HB         2.658099885         4.801953584        -2.367690302    
HB         2.847993585         4.389328815       -0.6536516993    
HB         4.033461887         3.805886227        -1.846867336    
C          2.243069769         2.231558243        -3.337757979    
O          3.029912559         1.323786958        -3.635432462    
N          1.464606310         2.825689357        -4.252794963    
H         0.8559480993         3.568960663        -3.935835034    
CH         1.431246001         2.479839288        -5.674929516    
HH         1.141023208         1.434560218        -5.800478536    
HH         2.416968981         2.628699722        -6.120785974    
HH        0.7096065542         3.110702181        -6.197712631    
    52
Energy=    -38.7747288291081    
HH        -6.678557265       -0.1779087132E-01     3.394500408    
CH        -6.077423159        0.2616557828         2.530084913    
HH        -5.632609413         1.241974382         2.696447633    
HH        -6.707956227        0.2950925080         1.642460773    
C         -4.978116881       -0.7562313423         2.323520225    
O         -4.874305673        -1.718306123         3.085196169    
N         -4.159631018       -0.5454573344         1.293640244    
H         -4.315927658        0.2748798270        0.7272580280    
CA        -3.025903502        -1.408948368        0.9491797605    
HA        -3.362512710        -2.446791935        0.9935281449    
CB        -2.612315065        -1.116398201       -0.4999577623    
HB        -1.810302553        -1.791858121       -0.8007752261    
HB        -2.261230837       -0.8694685700E-01   -0.5886806224    
HB        -3.463245411        -1.265560572        -1.166359022    
C         -1.837003572        -1.264830706         1.926897395    
O         -1.650792124       -0.2227098743         2.565668987    
N         -1.000502168        -2.306171177         2.013478363    
H         -1.209878836        -3.131735793         1.469090675    
CA        0.1725746937        -2.354065559         2.897552258    
HA       -0.1139716638        -1.953377220         3.871640877    
CB        0.5533045724        -3.828075189         3.091000173    
HB        0.8579575876        -4.265377112         2.138765421    
HB       -0.2976687241        -4.383101909         3.488726307    
HB         1.381091179        -3.904060515         3.797470597    
C          1.376464426        -1.516632581         2.400717167    
O          2.295975331        -1.236976071         3.177026942    
N          1.376694515        -1.110547208         1.125210746    
H         0.5871420970        -1.373419602        0.5537199484    
CA         2.404736376       -0.2795701529        0.4892752764    
HA         2.901872021        0.3233271157         1.251794588    
CB         3.450399021        -1.203978334       -0.1524825530    
HB         4.246946348       -0.6090485815       -0.6013459414    
HB         2.983933204        -1.815799541       -0.9262786831    
HB         3.885869993        -1.855641110        0.6063122683    
C          1.800697639        0.6939919472       -0.5472655377    
O         0.6948250721        0.4769755536        -1.056599558    
N          2.535800487         1.762033564       -0.8737689525    
H          3.438179905         1.871830113       -0.4342358656    
CA         2.140593165         2.762842053        -1.870473974    
HA         1.095977585         3.027520049        -1.693943741    
CB         2.982361971         4.027374860        -1.650758852    
HB         2.663571485         4.808501110        -2.342328206    
HB         2.850671806         4.388734930       -0.6297170213    
HB         4.037565452         3.809479960        -1.823555994    
C          2.248454704         2.242358043        -3.323549288    
O          3.035207402         1.335351227        -3.623781387    
N          1.471695832         2.840697857        -4.237291550    
H         0.8630025654         3.583021435        -3.918185294    
CH         1.440240424         2.500703847        -5.660880766    
HH         1.149591587         1.456120533        -5.791146279    
HH         2.426710100         2.650808220        -6.104663862    
HH        0.7197462149         3.134132841        -6.182138352    
