    52
Energy=    -35.9944802327719    
HH        -4.767141862         1.756747771         4.850035394    
CH        -3.739839649         1.713131769         5.209655438    
HH        -3.114806989         2.366845055         4.602562542    
HH        -3.703329482         2.035823628         6.249470047    
C         -3.232280602        0.2926333214         5.098744604    
O         -2.858435906       -0.3091277361         6.105997110    
N         -3.220584351       -0.2361978651         3.875927183    
H         -3.534701534        0.3451596512         3.112148103    
CA        -2.757935814        -1.587575890         3.538845240    
HA        -2.041249554        -1.917123861         4.293636993    
CB        -3.963441994        -2.539440590         3.573727133    
HB        -3.637830968        -3.559692347         3.366680680    
HB        -4.428244276        -2.514300814         4.560325541    
HB        -4.697240284        -2.240686365         2.823466036    
C         -2.040291974        -1.637638252         2.170840320    
O         -2.258185242       -0.7749026634         1.311448960    
N         -1.217777005        -2.677388889         1.968963802    
H         -1.132720329        -3.343422426         2.723729572    
CA       -0.3624046073        -2.909451796        0.7929072007    
HA        0.2458767336        -3.787343662         1.018595975    
CB        -1.251001923        -3.300905647       -0.4026800009    
HB        -1.940393958        -4.093785000       -0.1086833207    
HB        -1.822516665        -2.438955495       -0.7484799162    
HB       -0.6362981400        -3.668323046        -1.224910456    
C         0.6532543210        -1.775749977        0.4860294205    
O         0.7591085065       -0.7795026481         1.211507606    
N          1.449069431        -1.951360918       -0.5752750252    
H          1.327210091        -2.787714829        -1.127083092    
CA         2.456174788       -0.9845948413        -1.025008047    
HA         3.020251854       -0.6466608565       -0.1531881288    
CB         3.437336147        -1.702437486        -1.961808334    
HB         2.914996257        -2.053965714        -2.853099879    
HB         4.229799876        -1.015937245        -2.263263445    
HB         3.887463545        -2.553045215        -1.447714969    
C          1.835779896        0.2654689873        -1.690992046    
O         0.7306470194        0.2166487203        -2.244876727    
N          2.565810934         1.385563548        -1.662820953    
H          3.468888109         1.354150470        -1.212579848    
CA         2.163085483         2.650324572        -2.286579939    
HA         1.117957149         2.839295606        -2.032872793    
CB         3.000122810         3.782606672        -1.675534897    
HB         2.675558063         4.742221742        -2.080314496    
HB         2.870368748         3.797782449       -0.5923001756    
HB         4.055674238         3.636985322        -1.910918380    
C          2.268392882         2.622183016        -3.829989032    
O          3.054281380         1.859027297        -4.406030523    
N          1.490150535         3.481065958        -4.502998231    
H         0.8821439610         4.082057035        -3.962123249    
CH         1.456417672         3.614567271        -5.960475772    
HH        0.7350783277         4.381130789        -6.250488982    
HH         1.165580269         2.666475615        -6.417794600    
HH         2.442174382         3.899335611        -6.334359644    
    52
Energy=    -35.2276422063601    
HH        -4.625699095         1.719101066         5.873192059    
CH        -3.757976210         1.710067261         5.215147066    
HH        -4.044209027         2.104980606         4.240916796    
HH        -2.967573371         2.331028479         5.634342343    
C         -3.252330609        0.2889697751         5.086407918    
O         -2.882709040       -0.3168724283         6.092512522    
N         -3.234583487       -0.2387830230         3.862331580    
H         -3.544295686        0.3416985663         3.096307641    
CA        -2.769859728        -1.589959826         3.526741918    
HA        -2.055607028        -1.919347260         4.283908321    
CB        -3.974913246        -2.542588902         3.556930794    
HB        -3.647915758        -3.562581036         3.350782501    
HB        -4.443342427        -2.518057110         4.541827583    
HB        -4.706163134        -2.244091920         2.804081666    
C         -2.047365829        -1.639224107         2.161266088    
O         -2.262714416       -0.7762078057         1.301519538    
N         -1.223655914        -2.678492442         1.961829051    
H         -1.140898065        -3.344799700         2.716612566    
CA       -0.3641153178        -2.909683228        0.7886407952    
HA        0.2437664888        -3.787403032         1.016070167    
CB        -1.248391442        -3.301027873       -0.4101794784    
HB        -1.938425692        -4.094355995       -0.1189124661    
HB        -1.819108389        -2.439191669       -0.7575782626    
HB       -0.6306759888        -3.667797031        -1.230440364    
C         0.6521021895        -1.775416592        0.4857353024    
O         0.7548337359       -0.7792934474         1.211830747    
N          1.451836688        -1.950380979       -0.5727250146    
H          1.332377663        -2.786658460        -1.125174425    
CA         2.460105749       -0.9830271028        -1.018571892    
HA         3.020842455       -0.6450171115       -0.1446291222    
CB         3.445017021        -1.700189278        -1.951952667    
HB         2.926095653        -2.051766181        -2.845219695    
HB         4.238245590        -1.013243330        -2.250365466    
HB         3.893675625        -2.550697884        -1.436413373    
C          1.841539798        0.2668892990        -1.686531361    
O         0.7384235947        0.2176817803        -2.244387601    
N          2.570958068         1.387307906        -1.655517176    
H          3.472426680         1.356212030        -1.202042009    
CA         2.169907660         2.652010226        -2.280473655    
HA         1.123789763         2.840462949        -2.030486582    
CB         3.004235910         3.784547886        -1.666205614    
HB         2.680696493         4.744096590        -2.071962208    
HB         2.870584459         3.799453354       -0.5834411039    
HB         4.060691422         3.639445921        -1.897823721    
C          2.280772696         2.624218261        -3.823499928    
O          3.069068303         1.861527609        -4.396862157    
N          1.504568414         3.482884372        -4.499134369    
H         0.8943528482         4.083497062        -3.960330684    
CH         1.476012915         3.616656331        -5.956697757    
HH        0.7553770710         4.382954093        -6.249151963    
HH         1.187245208         2.668524408        -6.415243032    
HH         2.462979042         3.901938721        -6.326981813    
    52
Energy=    -35.9944802327686    
HH        -3.740406732         2.026838198         6.230281772    
CH        -3.770736040         1.705609856         5.189815563    
HH        -4.795891605         1.749682685         4.824175818    
HH        -3.142153892         2.360208096         4.587358681    
C         -3.262447916        0.2852936951         5.079913705    
O         -2.894543615       -0.3178674307         6.088515174    
N         -3.243476444       -0.2418139329         3.856443520    
H         -3.553095766        0.3406035859         3.091636118    
CA        -2.778761675        -1.592693258         3.520205982    
HA        -2.066541102        -1.923269020         4.278765914    
CB        -3.984398939        -2.544665008         3.546604390    
HB        -3.657508636        -3.564608165         3.340053891    
HB        -4.455039636        -2.520937831         4.530466139    
HB        -4.713756476        -2.244889962         2.792430514    
C         -2.053022516        -1.640793688         2.156407848    
O         -2.265870412       -0.7768597054         1.296955974    
N         -1.229265611        -2.680218188         1.957944592    
H         -1.148643494        -3.347309566         2.712262729    
CA       -0.3669271460        -2.910582535        0.7866509117    
HA        0.2400573982        -3.788761032         1.014703617    
CB        -1.248402861        -3.300396896       -0.4147297050    
HB        -1.939478537        -4.093723667       -0.1259388882    
HB        -1.817908938        -2.437989169       -0.7626959177    
HB       -0.6288172315        -3.666625733        -1.233820230    
C         0.6504662452        -1.776399295        0.4873919659    
O         0.7519625395       -0.7811690141         1.214886044    
N          1.452565405        -1.950476399       -0.5694250071    
H          1.334026014        -2.786058718        -1.123121954    
CA         2.462261418       -0.9830280627        -1.011822254    
HA         3.021143540       -0.6462933667       -0.1362008721    
CB         3.448997709        -1.699502541        -1.943802016    
HB         2.931968219        -2.049801810        -2.838666589    
HB         4.243193745        -1.012539229        -2.239590096    
HB         3.896120668        -2.550810676        -1.428248246    
C          1.845750507        0.2679409635        -1.679710626    
O         0.7439212597        0.2198453889        -2.240200998    
N          2.575536938         1.388030984        -1.645639174    
H          3.475932701         1.356029143        -1.190100402    
CA         2.176440694         2.653648463        -2.269993320    
HA         1.129816748         2.842210583        -2.022216710    
CB         3.009777860         3.785111148        -1.652407990    
HB         2.687561253         4.745278714        -2.057753012    
HB         2.873607898         3.798756349       -0.5699407014    
HB         4.066713647         3.639873430        -1.881738596    
C          2.290891377         2.627683729        -3.812789513    
O          3.080222857         1.865378197        -4.385238004    
N          1.516600006         3.487474155        -4.489188608    
H         0.9053651073         4.087673562        -3.951080273    
CH         1.491494278         3.623024150        -5.946651189    
HH        0.7718401209         4.389958046        -6.239854245    
HH         1.203427618         2.675561967        -6.407018117    
HH         2.479431751         3.908368610        -6.314287607    
