    52
Energy=    -40.6448843121873    
HH        -5.043965749       -0.8145543664        0.6300638565    
CH        -4.197544343        -1.474462354        0.4437098109    
HH        -4.253573527        -2.334095511         1.110444724    
HH        -4.219751058        -1.812904698       -0.5915937900    
C         -2.913641049       -0.7224665210        0.7036087937    
O         -2.083355858       -0.5852145441       -0.1934048078    
N         -2.733108143       -0.2559101152         1.939573388    
H         -3.465977193       -0.4182937757         2.615714266    
CA        -1.590140533        0.5688807792         2.353349780    
HA        -1.564871200         1.458675725         1.721854327    
CB        -1.833111644         1.020147835         3.799378558    
HB        -1.868185707        0.1543580443         4.462805571    
HB        -1.024955732         1.680021200         4.118391572    
HB        -2.776176558         1.564796678         3.865601235    
C        -0.2219434270       -0.1361934569         2.207645801    
O         0.7975532701        0.5283827388         2.005542756    
N        -0.1936035210        -1.474640083         2.243299225    
H         -1.059467914        -1.958692968         2.435494702    
CA         1.009501564        -2.284818815         2.017780098    
HA         1.815660688        -1.885690182         2.636131533    
CB        0.7091509260        -3.712067766         2.494043546    
HB       -0.8984108875E-01    -4.148702478         1.892494465    
HB        0.4071256700        -3.698555358         3.542381921    
HB         1.604396944        -4.327746067         2.395928303    
C          1.506784113        -2.269862312        0.5513310292    
O          2.668593113        -2.599262781        0.2935367590    
N         0.6513150809        -1.873037936       -0.4012775126    
H        -0.2930668219        -1.639707425       -0.1184274559    
CA        0.9536786889        -1.759853786        -1.834293085    
HA         1.943790231        -2.176705480        -2.024398876    
CB       -0.6202256327E-01    -2.623151330        -2.596060220    
HB        -1.068306501        -2.224083393        -2.460128994    
HB        0.1792092485        -2.626680765        -3.659744836    
HB       -0.2813469558E-01    -3.649023385        -2.226554326    
C         0.9926173579       -0.2988781506        -2.348925818    
O          1.215578996       -0.6667686384E-01    -3.542165686    
N         0.7778686233        0.6892403859        -1.471565984    
H         0.6272613426        0.4385138879       -0.5065720611    
CA        0.7760625251         2.116156019        -1.804859910    
HA        0.2283265300         2.248071548        -2.740250953    
CB        0.6657687567E-02     2.867927999       -0.7098594712    
HB        0.5286108366         2.777318299        0.2438489569    
HB       -0.9989033398         2.455627843       -0.6131115398    
HB       -0.7171800562E-01     3.923977871       -0.9715809970    
C          2.197218115         2.689889226        -2.015835153    
O          3.188429357         2.158575808        -1.499249847    
N          2.293820415         3.799386479        -2.761488899    
H          1.437981956         4.182332171        -3.141369819    
CH         3.544157593         4.497945119        -3.064461280    
HH         3.344990201         5.368346251        -3.692777216    
HH         4.020775417         4.832344371        -2.140557115    
HH         4.228249980         3.831016189        -3.593439326    
    52
Energy=    -37.5143405474165    
HH        -5.462928748        -2.967798464        0.7016893531    
CH        -4.400912006        -3.187645406        0.5994252593    
HH        -4.111573927        -3.932404879         1.339883399    
HH        -4.202415557        -3.570851522       -0.4008989908    
C         -3.606652697        -1.922204671        0.8252548462    
O         -2.869028016        -1.486954130       -0.5750001117E-01
N         -3.735035133        -1.341477021         2.018479743    
H         -4.360768073        -1.770357018         2.685520158    
CA        -3.107285188       -0.6623142678E-01     2.391674375    
HA        -3.384716802        0.6800225392         1.644999129    
CB        -3.697647242        0.3701586403         3.739247374    
HB        -3.438009213       -0.3527215641         4.514408879    
HB        -3.298679693         1.347018304         4.016240652    
HB        -4.783460887        0.4449064242         3.663223765    
C         -1.560706830       -0.1051071014         2.439369085    
O        -0.9133165906        0.9453659764         2.393522075    
N        -0.9589265294        -1.300128298         2.498020524    
H         -1.547344157        -2.118274307         2.562907836    
CA        0.4932877776        -1.504563454         2.474383981    
HA        0.9547413597       -0.7810180972         3.148944423    
CB        0.7770476639        -2.908541359         3.025189184    
HB        0.3396533030        -3.664364928         2.370773200    
HB        0.3544139076        -3.007907372         4.026159461    
HB         1.854454566        -3.069648140         3.083227697    
C          1.135679662        -1.299360941         1.080682164    
O          2.359699639        -1.164481401        0.9838432561    
N         0.3392885909        -1.262320890        0.3263627633E-02
H        -0.6572043805        -1.372502659        0.1408084286    
CA        0.8083759349        -1.043443414        -1.367379465    
HA         1.768033341        -1.548265253        -1.496315170    
CB       -0.1817281848        -1.709529914        -2.334339899    
HB        -1.165929247        -1.247739738        -2.246870664    
HB        0.1745984432        -1.594492406        -3.358793838    
HB       -0.2631756929        -2.773307371        -2.107009574    
C          1.029967553        0.4593613866        -1.653680489    
O         0.1212088957         1.171678627        -2.096173394    
N          2.244797033        0.9473902060        -1.384023524    
H          2.931486160        0.3164203830       -0.9958150156    
CA         2.650063961         2.338291213        -1.608147999    
HA         1.861082221         2.989908794        -1.227016438    
CB         3.916048479         2.612783736       -0.7847856751    
HB         4.735521511         1.984498513        -1.137626773    
HB         3.727073217         2.401247258        0.2688141890    
HB         4.203114725         3.660366787       -0.8856297517    
C          2.848686186         2.676326340        -3.104886000    
O          3.127538828         1.797212362        -3.930327355    
N          2.730638224         3.965339514        -3.452410422    
H          2.512730670         4.628022965        -2.719759108    
CH         2.895389974         4.484344584        -4.811339727    
HH         2.742693391         5.565381518        -4.821232969    
HH         3.901449358         4.267575538        -5.176652882    
HH         2.168680516         4.020021338        -5.481340932    
    52
Energy=    -39.4803374114746    
HH        -5.182885200        -3.107054713       -0.1113831619E-02
CH        -4.107628779        -3.250528000        0.9842301003E-01
HH        -3.911129203        -4.005738620        0.8584921395    
HH        -3.693174164        -3.575627709       -0.8552219089    
C         -3.467545020        -1.945701132        0.5117641659    
O         -2.609122345        -1.423807596       -0.1976038235    
N         -3.864389197        -1.427429038         1.674117558    
H         -4.572736918        -1.925635239         2.194157515    
CA        -3.415140646       -0.1307359276         2.199796390    
HA        -3.586920734        0.6248744252         1.431085276    
CB        -4.295609784        0.2151326032         3.408167504    
HB        -4.147994695       -0.5187494346         4.202170274    
HB        -4.031026624         1.204226353         3.784737804    
HB        -5.346006032        0.2229799727         3.113292500    
C         -1.911095227       -0.7291504614E-01     2.561912090    
O         -1.349088680         1.018265069         2.696496342    
N         -1.247705041        -1.228534584         2.696294587    
H         -1.776142017        -2.084206098         2.605707064    
CA        0.1899120069        -1.341735011         2.965138583    
HA        0.4703026291       -0.5666514242         3.680666361    
CB        0.4344903528        -2.702546268         3.631370930    
HB        0.1806019295        -3.509218964         2.941767987    
HB       -0.1752214554        -2.790749850         4.531864096    
HB         1.485174159        -2.791815654         3.910864609    
C          1.084605087        -1.146873785         1.715829952    
O          2.305350683        -1.010560496         1.851342329    
N         0.5091539794        -1.133542088        0.5058503535    
H        -0.4956770223        -1.234604345        0.4506018334    
CA         1.240370656       -0.9490263695       -0.7519720241    
HA         2.128989881        -1.583139773       -0.7250324754    
CB        0.3603381103        -1.438783731        -1.909648471    
HB       -0.5294435316       -0.8131138978        -1.992744718    
HB        0.9178773298        -1.386327330        -2.845722413    
HB        0.5960497756E-01    -2.473217013        -1.737236979    
C          1.716107462        0.5062611574       -0.9685790131    
O          1.127940712         1.460684577       -0.4457596854    
N          2.773630167        0.6783579209        -1.768953288    
H          3.197347417       -0.1402087847        -2.180850954    
CA         3.332626291         1.985208683        -2.130064703    
HA         3.406426158         2.588199873        -1.222697175    
CB         4.756411925         1.775058749        -2.663631638    
HB         4.729671171         1.179941478        -3.577917947    
HB         5.361555114         1.260759885        -1.915458267    
HB         5.215622075         2.740210336        -2.881941984    
C          2.448449798         2.762839352        -3.133776382    
O          1.682425846         2.172362499        -3.906002350    
N          2.576370894         4.096949174        -3.141954252    
H          3.231992629         4.506838209        -2.489604274    
CH         1.839683451         5.003010107        -4.024864952    
HH         2.126015947         6.037379824        -3.824495236    
HH         2.061272807         4.772354107        -5.069034818    
HH        0.7653609695         4.896883366        -3.860027692    
