    52
Energy=    -35.3503472283966    
HH        -5.800911699       -0.9715104262        0.4013531471    
CH        -4.830823471        -1.073097165       -0.8355166979E-01
HH        -4.736058202        -2.075094319       -0.5001813364    
HH        -4.741937159       -0.3365507854       -0.8812481537    
C         -3.737406588       -0.8516128141        0.9364145548    
O         -2.922379269        0.5856885087E-01    0.7840824062    
N         -3.710241997        -1.685872730         1.975056909    
H         -4.409478546        -2.412110498         2.022487188    
CA        -2.701901522        -1.627308508         3.036047101    
HA        -2.677678084       -0.6071760739         3.424767884    
CB        -3.130121018        -2.551333662         4.183775580    
HB        -3.180523152        -3.584328139         3.835677426    
HB        -2.406076499        -2.485303886         4.997190840    
HB        -4.109033975        -2.248806926         4.558631019    
C         -1.292207205        -1.973416356         2.508297177    
O         -1.108326622        -2.970855218         1.802134470    
N        -0.2990273914        -1.145867652         2.860612227    
H        -0.5364764439       -0.3678815699         3.461064338    
CA         1.107116264        -1.246697799         2.437784376    
HA         1.578348476       -0.3103549617         2.741628122    
CB         1.798222162        -2.358200359         3.246226633    
HB         1.407908721        -3.333702426         2.954013758    
HB         1.623601126        -2.205741309         4.312146342    
HB         2.873220601        -2.336309572         3.063111571    
C          1.341345417        -1.324444264        0.9039096191    
O          2.376364954        -1.825135355        0.4513441751    
N         0.3981591045       -0.8254075660        0.9215894449E-01
H        -0.4359863021       -0.4395308878        0.5130062559    
CA        0.4480860743       -0.8959520898        -1.374814724    
HA        0.8380253869        -1.875182226        -1.658579685    
CB       -0.9897143083       -0.8007934180        -1.901437161    
HB       -0.9930421416       -0.9281814864        -2.984706778    
HB        -1.414026360        0.1743890084        -1.658208370    
HB        -1.602384050        -1.585108746        -1.454656841    
C          1.366016863        0.1618529735        -2.034237613    
O          1.744581400       -0.2769079242E-02    -3.199093043    
N          1.740475694         1.217247720        -1.293820619    
H          1.385329610         1.253366050       -0.3501703198    
CA         2.536275384         2.372150835        -1.741417135    
HA         2.550367491         3.081901797       -0.9122192356    
CB         3.995472132         1.922539146        -1.944224584    
HB         4.075826364         1.280512772        -2.821982064    
HB         4.339945809         1.373919917        -1.066294920    
HB         4.641542935         2.790081430        -2.081621253    
C          1.936379173         3.156339219        -2.941092763    
O         0.8340375489         2.867209514        -3.423477743    
N          2.646119646         4.198565762        -3.397689521    
H          3.531148069         4.391401512        -2.947858649    
CH         2.240743490         5.072291868        -4.500480833    
HH         3.002968788         5.834196696        -4.675298102    
HH         2.110982969         4.488216141        -5.414054917    
HH         1.297150650         5.566886861        -4.260504031    
    52
Energy=    -34.9848968118890    
HH        -5.798847793        -1.011252777        0.3770662795    
CH        -4.825910852        -1.107704141       -0.1031571181    
HH        -4.722542626        -2.110225759       -0.5164661892    
HH        -4.738345900       -0.3728542742       -0.9025625643    
C         -3.738640790       -0.8759752383        0.9210954865    
O         -2.929051429        0.3922306424E-01    0.7698267893    
N         -3.710597015        -1.707070364         1.962248590    
H         -4.405157239        -2.437850192         2.008610905    
CA        -2.707491363        -1.638715738         3.027606269    
HA        -2.691843742       -0.6173325891         3.413472083    
CB        -3.134730226        -2.562287206         4.176065013    
HB        -3.176651374        -3.596590915         3.830740939    
HB        -2.414839718        -2.489078095         4.992547012    
HB        -4.117332334        -2.265244141         4.545616257    
C         -1.293137227        -1.976895892         2.507235797    
O         -1.099407487        -2.975073823         1.804760002    
N        -0.3071019889        -1.141753008         2.861692910    
H        -0.5524552928       -0.3636774495         3.458841988    
CA         1.101595013        -1.234406005         2.445546134    
HA         1.565197759       -0.2940859701         2.748843647    
CB         1.796385059        -2.338982815         3.260298074    
HB         1.413904593        -3.317888261         2.969110798    
HB         1.615895722        -2.184670984         4.324972909    
HB         2.872037769        -2.310447474         3.082003725    
C          1.343326300        -1.314935877        0.9129793834    
O          2.383686788        -1.810037505        0.4665507808    
N         0.4005684060       -0.8244600044        0.9553505368E-01
H        -0.4380191697       -0.4429306442        0.5114861265    
CA        0.4576533603       -0.8987982119        -1.370989637    
HA        0.8553376987        -1.876222130        -1.650194735    
CB       -0.9783257902       -0.8146303728        -1.904406248    
HB       -0.9758680000       -0.9450749881        -2.987313760    
HB        -1.410164697        0.1584063891        -1.665877435    
HB        -1.587838992        -1.601721052        -1.458190828    
C          1.371576269        0.1631984087        -2.029246777    
O          1.756581199       -0.2263212097E-02    -3.191877848    
N          1.735628520         1.223143451        -1.290125771    
H          1.375857020         1.259532561       -0.3482450726    
CA         2.525528842         2.382291924        -1.737365507    
HA         2.531763742         3.093759878       -0.9095335756    
CB         3.988467171         1.941643556        -1.933297044    
HB         4.076636621         1.298922112        -2.809796682    
HB         4.332607802         1.396375518        -1.053147162    
HB         4.629793310         2.812952934        -2.069056034    
C          1.925129542         3.160371880        -2.940997148    
O         0.8265868053         2.860389439        -3.425217201    
N          2.633018531         4.206677477        -3.394175334    
H          3.513070773         4.397226801        -2.933714268    
CH         2.251907398         5.092590970        -4.498574103    
HH         3.005430769         5.046706327        -5.287324056    
HH         1.287552000         4.805963283        -4.922938903    
HH         2.181576561         6.121760937        -4.140961949    
    52
Energy=    -35.3503472283965    
HH        -5.793183166        -1.035854428        0.3486277188    
CH        -4.817355984        -1.128031885       -0.1265441921    
HH        -4.707243794        -2.130250773       -0.5388446084    
HH        -4.729071157       -0.3931433663       -0.9258349287    
C         -3.736445952       -0.8908325773        0.9031727016    
O         -2.930315921        0.2802098231E-01    0.7556335947    
N         -3.709923452        -1.721323577         1.944847664    
H         -4.401337244        -2.455277796         1.987985259    
CA        -2.712637390        -1.647862391         3.015316922    
HA        -2.703709071       -0.6262528970         3.400797303    
CB        -3.141491105        -2.572914901         4.161980527    
HB        -3.176843586        -3.607549072         3.816911515    
HB        -2.426154790        -2.496021012         4.982118365    
HB        -4.127345978        -2.280272569         4.526343317    
C         -1.294074891        -1.979702718         2.502373337    
O         -1.092102576        -2.977302336         1.801399506    
N        -0.3137689279        -1.139804123         2.861454747    
H        -0.5658000216       -0.3625952915         3.456949413    
CA         1.097455474        -1.226080485         2.452563391    
HA         1.555112194       -0.2834680270         2.757769570    
CB         1.793208656        -2.327026445         3.271397738    
HB         1.416791421        -3.307840469         2.978735566    
HB         1.606555370        -2.173064058         4.335059915    
HB         2.869615125        -2.293557044         3.098594694    
C          1.347400803        -1.306193195        0.9212930531    
O          2.392347934        -1.796605342        0.4804371701    
N         0.4065470699       -0.8205370965        0.9879101150E-01
H        -0.4359437527       -0.4427595568        0.5102581178    
CA        0.4714812252       -0.8953168009        -1.367385155    
HA        0.8751904082        -1.870990384        -1.644056150    
CB       -0.9621317298       -0.8181803903        -1.908181033    
HB       -0.9535225183       -0.9491460865        -2.990994831    
HB        -1.399771319        0.1529235150        -1.672362182    
HB        -1.570202017        -1.607919147        -1.464682870    
C          1.383749531        0.1706546747        -2.021494036    
O          1.775419470        0.6517543302E-02    -3.182077238    
N          1.739068791         1.232643875        -1.281073894    
H          1.374409940         1.267826995       -0.3410232429    
CA         2.526069847         2.395016840        -1.724874998    
HA         2.524107140         3.107594062       -0.8979868392    
CB         3.992149668         1.961304592        -1.912065624    
HB         4.088253705         1.317358330        -2.786828501    
HB         4.334276302         1.419501868        -1.029000027    
HB         4.629679084         2.835656393        -2.046155551    
C          1.929005252         3.168424546        -2.932932475    
O         0.8347267210         2.865245205        -3.424953914    
N          2.631316412         4.217124722        -3.386182161    
H          3.509709191         4.421448026        -2.928484806    
CH         2.226799862         5.082585123        -4.495785907    
HH         2.112505344         4.494087635        -5.408587814    
HH         1.275398120         5.567240416        -4.266603678    
HH         2.982026586         5.852500699        -4.665815462    
