    52
Energy=    -38.6587951459639    
HH        -5.613215151        -6.392591137         2.331601856    
CH        -5.052962010        -5.689533157         2.946813259    
HH        -4.069463076        -6.101932258         3.168657434    
HH        -5.589861269        -5.510605546         3.877558972    
C         -4.889572993        -4.381552860         2.205326108    
O         -5.361703695        -4.247261961         1.075885901    
N         -4.222851865        -3.418484209         2.840067582    
H         -3.864021234        -3.621371852         3.761031048    
CA        -3.945566058        -2.094675238         2.274102023    
HA        -4.864687883        -1.719177192         1.819635023    
CB        -3.571472341        -1.142755978         3.418680339    
HB        -3.418257044       -0.1360773330         3.027243178    
HB        -4.375443438        -1.113608832         4.155684560    
HB        -2.652060251        -1.479670197         3.900266518    
C         -2.861211765        -2.122883148         1.171994280    
O         -1.991395533        -3.002494775         1.146730495    
N         -2.895077135        -1.134658981        0.2715155514    
H         -3.619048225       -0.4363393860        0.3583506654    
CA        -1.919383652       -0.9692792173       -0.8107058197    
HA        -1.768147334        -1.940505422        -1.286419747    
CB        -2.514756996       -0.2447290924E-01    -1.863664643    
HB        -3.464663650       -0.4216224732        -2.224787442    
HB        -2.677581136        0.9638718223        -1.430666532    
HB        -1.829899723        0.6706616880E-01    -2.707903573    
C        -0.5414364253       -0.4775052888       -0.3098931846    
O        -0.4320609720        0.1689412802        0.7392355833    
N         0.5140954631       -0.7615909954        -1.080269378    
H         0.3556123481        -1.276284732        -1.934310704    
CA         1.886546045       -0.3333254524       -0.7912248289    
HA         2.092937711       -0.5340951406        0.2621333859    
CB         2.850080723        -1.189746605        -1.624236054    
HB         3.881119550       -0.9288180176        -1.381304964    
HB         2.681696366        -1.015417166        -2.688225600    
HB         2.694714896        -2.246655790        -1.402289668    
C          2.108643057         1.178629778        -1.028311117    
O          1.406447371         1.814248275        -1.824258495    
N          3.110542476         1.751605221       -0.3529121369    
H          3.658956128         1.173297959        0.2668326533    
CA         3.499852917         3.159123468       -0.4881248060    
HA         2.593874594         3.768289785       -0.4657950077    
CB         4.349717604         3.548103601        0.7294502166    
HB         5.272410461         2.965661977        0.7435833656    
HB         3.790749652         3.361587883         1.647725937    
HB         4.600458682         4.608717602        0.6817307230    
C          4.227828698         3.458457907        -1.820212595    
O          4.845237983         2.574043203        -2.427218225    
N          4.178237795         4.722338602        -2.263414692    
H          3.664266013         5.392302410        -1.706284078    
CH         4.813346231         5.204311196        -3.491237210    
HH         5.893273478         5.049954718        -3.440923247    
HH         4.615899319         6.270078525        -3.622435426    
HH         4.419255595         4.664361668        -4.354807486    
    52
Energy=    -37.8890940153589    
HH        -6.124282384        -5.899863557         3.053944254    
CH        -5.060511768        -5.697108848         2.938504971    
HH        -4.591247185        -6.492559937         2.361368584    
HH        -4.596800524        -5.648578484         3.923174674    
C         -4.885840219        -4.385900968         2.202587309    
O         -5.347013383        -4.258355468         1.068070760    
N         -4.228026930        -3.414953874         2.836305609    
H         -3.875669687        -3.607374589         3.761816900    
CA        -3.951843572        -2.094274726         2.262202607    
HA        -4.868955114        -1.726112599         1.797766588    
CB        -3.590658853        -1.131900229         3.402193545    
HB        -3.438684557       -0.1276472657         3.004087509    
HB        -4.400438076        -1.100427427         4.132720162    
HB        -2.673562431        -1.461053183         3.893472124    
C         -2.858814299        -2.126238135         1.168778170    
O         -1.984638268        -3.001802151         1.157507281    
N         -2.890318075        -1.145535020        0.2600281190    
H         -3.618267071       -0.4500351943        0.3354994032    
CA        -1.906990959       -0.9842702242       -0.8158883353    
HA        -1.747421240        -1.958596642        -1.282452531    
CB        -2.498607211       -0.5095072980E-01    -1.881138030    
HB        -3.443763741       -0.4556024384        -2.246372652    
HB        -2.669509028        0.9400911104        -1.457518969    
HB        -1.807619447        0.3701077419E-01    -2.720749229    
C        -0.5353543793       -0.4817969537       -0.3084157189    
O        -0.4372495418        0.1736250470        0.7362488589    
N         0.5274957995       -0.7669854904        -1.068250283    
H         0.3781352235        -1.289323956        -1.919289278    
CA         1.895589723       -0.3297560268       -0.7720593098    
HA         2.094721757       -0.5209968768        0.2844646812    
CB         2.869669494        -1.188212522        -1.590585483    
HB         3.897524892       -0.9203390469        -1.341793579    
HB         2.708752805        -1.023312487        -2.657230502    
HB         2.717630242        -2.244031613        -1.361269419    
C          2.112301166         1.181289481        -1.019695021    
O          1.413300358         1.807042271        -1.826201761    
N          3.106158281         1.764552688       -0.3412267409    
H          3.652482620         1.193938871        0.2874305992    
CA         3.489781874         3.172799101       -0.4848506294    
HA         2.580757154         3.777733662       -0.4744978316    
CB         4.328264000         3.575725066        0.7360764170    
HB         5.253590782         2.997889977        0.7620966501    
HB         3.763054253         3.393940101         1.651475645    
HB         4.574299383         4.637119646        0.6816849584    
C          4.226678391         3.464868319        -1.813642130    
O          4.853018126         2.578571359        -2.408634292    
N          4.174504907         4.724867476        -2.267472318    
H          3.653011700         5.396820349        -1.719807101    
CH         4.816852634         5.199960583        -3.494209617    
HH         5.897080044         5.051244868        -3.434270874    
HH         4.615345183         6.263663625        -3.635591525    
HH         4.432087450         4.651142089        -4.356393216    
    52
Energy=    -38.6587951459686    
HH        -5.601610736        -5.504895286         3.868704561    
CH        -5.048791531        -5.692115076         2.948974622    
HH        -5.593325411        -6.408678885         2.335233362    
HH        -4.065331735        -6.092630633         3.191775224    
C         -4.885208603        -4.393282039         2.191620682    
O         -5.340879796        -4.279053897         1.053248020    
N         -4.236772258        -3.415526429         2.822841164    
H         -3.890552157        -3.602273327         3.752009480    
CA        -3.962173878        -2.097392987         2.242501112    
HA        -4.877334383        -1.736469940         1.768644834    
CB        -3.614142280        -1.126216399         3.379095118    
HB        -3.463566339       -0.1238172425         2.975830087    
HB        -4.429686963        -1.093842581         4.103134560    
HB        -2.699446203        -1.448177586         3.879522053    
C         -2.860626861        -2.131472094         1.157745768    
O         -1.982956878        -3.003613234         1.158365425    
N         -2.889035612        -1.156331489        0.2429290924    
H         -3.620273835       -0.4633008502        0.3086856459    
CA        -1.898113291       -0.9975325401       -0.8263637421    
HA        -1.731120570        -1.973966802        -1.285870075    
CB        -2.485197551       -0.7291893343E-01    -1.901664816    
HB        -3.425913231       -0.4834995401        -2.271715732    
HB        -2.663260801        0.9199288454        -1.485286206    
HB        -1.788124397        0.1281617005E-01    -2.736462256    
C        -0.5324120097       -0.4865875263       -0.3113990354    
O        -0.4449360851        0.1754738269        0.7300182937    
N         0.5373747019       -0.7721049846        -1.061310967    
H         0.3966300956        -1.300126623        -1.910308749    
CA         1.901418616       -0.3276829526       -0.7572517616    
HA         2.093148738       -0.5118030907        0.3019030219    
CB         2.885139882        -1.187151036        -1.563087389    
HB         3.909987912       -0.9137145352        -1.308020136    
HB         2.731804669        -1.029280148        -2.631910523    
HB         2.735481154        -2.242173508        -1.328597287    
C          2.114102142         1.182701249        -1.012302566    
O          1.418891007         1.800834083        -1.827909800    
N          3.100401608         1.773957212       -0.3297362038    
H          3.644097096         1.209290979        0.3065245018    
CA         3.479591914         3.182830572       -0.4788779318    
HA         2.568147456         3.784202225       -0.4791530440    
CB         4.307047547         3.596384597        0.7460117356    
HB         5.234406596         3.022394098        0.7826204259    
HB         3.735514129         3.417840475         1.658116516    
HB         4.549328006         4.658403020        0.6871275558    
C          4.225560247         3.469862971        -1.803699190    
O          4.859941585         2.582513489        -2.388515950    
N          4.171944016         4.726905693        -2.265489900    
H          3.643611175         5.400049504        -1.725902247    
CH         4.821862059         5.197192886        -3.490089807    
HH         5.902170292         5.053127056        -3.420956398    
HH         4.617279643         6.259222454        -3.639413247    
HH         4.445911407         4.641700589        -4.351887900    
