    52
Energy=    -38.7747288291091    
HH        -6.675785458       -0.1960804130E-01     3.399939822    
CH        -6.075956867        0.2578936954         2.533992223    
HH        -5.633158356         1.239802756         2.696301971    
HH        -6.707271844        0.2866064306         1.646758568    
C         -4.974589464       -0.7583576668         2.330373773    
O         -4.868062133        -1.717326608         3.095583153    
N         -4.157391307       -0.5496756755         1.299046194    
H         -4.315937244        0.2681779737        0.7297052490    
CA        -3.022051327        -1.411976782        0.9569236937    
HA        -3.356351212        -2.450379590         1.005452079    
CB        -2.610263964        -1.123984560       -0.4936390263    
HB        -1.807014981        -1.798817391       -0.7925588101    
HB        -2.261506236       -0.9410941720E-01   -0.5865216856    
HB        -3.461398412        -1.277517247        -1.158785901    
C         -1.832688118        -1.261576769         1.933130487    
O         -1.648248498       -0.2166520127         2.567822507    
N        -0.9938391274        -2.300751712         2.022956139    
H         -1.201842668        -3.128817366         1.481850531    
CA        0.1800466036        -2.342749411         2.906255819    
HA       -0.1065972520        -1.939021417         3.879059809    
CB        0.5641580479        -3.815183612         3.104945666    
HB        0.8690061533        -4.255402906         2.154118630    
HB       -0.2852793569        -4.370567482         3.505446781    
HB         1.392673932        -3.886696211         3.811028012    
C          1.381701807        -1.504563626         2.405297800    
O          2.301218979        -1.219974471         3.179805464    
N          1.380022185        -1.103286932         1.128271483    
H         0.5905902631        -1.370036287        0.5584130200    
CA         2.405733088       -0.2724659146        0.4883805175    
HA         2.902157793        0.3343850065         1.248222038    
CB         3.452902983        -1.196996931       -0.1507372935    
HB         4.247786571       -0.6020223617       -0.6024813971    
HB         2.987158561        -1.812746952       -0.9218469117    
HB         3.890406537        -1.844843191        0.6101534921    
C          1.798735095        0.6958615676       -0.5513300814    
O         0.6929332556        0.4745105142        -1.058949418    
N          2.531236226         1.764270427       -0.8824466677    
H          3.433724388         1.877694755       -0.4440595450    
CA         2.133041492         2.760450498        -1.882593454    
HA         1.087990174         3.023506339        -1.706217609    
CB         2.972214172         4.027639993        -1.668321004    
HB         2.651160946         4.805456500        -2.362568855    
HB         2.840549143         4.392554833       -0.6485409769    
HB         4.027753871         3.811404068        -1.841148672    
C          2.240881263         2.234733564        -3.333785330    
O          3.029378031         1.328324807        -3.631235319    
N          1.462084081         2.827927074        -4.249146567    
H         0.8520219485         3.570114606        -3.932346235    
CH         1.430235827         2.482505050        -5.671419723    
HH         1.141771910         1.436805148        -5.797516681    
HH         2.416019359         2.633094303        -6.116561151    
HH        0.7079394355         3.112388438        -6.194476607    
    52
Energy=    -38.2621440109915    
HH        -7.119929303       -0.9327973643E-01     2.709388336    
CH        -6.201540264        0.3135148459         2.287763327    
HH        -5.747963082         1.003228043         2.998502514    
HH        -6.427801434        0.8423815240         1.362728643    
C         -5.233068327       -0.8108782844         1.995636240    
O         -5.547707692        -1.975123113         2.244050998    
N         -4.059130428       -0.4575710776         1.473509787    
H         -3.893752877        0.5273631344         1.327295106    
CA        -2.972637832        -1.379517451         1.121203528    
HA        -3.331105494        -2.406442733         1.212700326    
CB        -2.604668396        -1.154445678       -0.3523443047    
HB        -1.838735347        -1.868314183       -0.6582822870    
HB        -2.223308703       -0.1417086619       -0.4925794133    
HB        -3.485863389        -1.296325279       -0.9797968344    
C         -1.749471697        -1.243004346         2.054690865    
O         -1.539424064       -0.2037745741         2.690235862    
N        -0.9159098543        -2.288580972         2.112715665    
H         -1.147041091        -3.112161830         1.573991171    
CA        0.2863265724        -2.343336487         2.956480900    
HA        0.3617002524E-01    -1.939186685         3.939139798    
CB        0.6629061732        -3.819741161         3.139376584    
HB        0.9318085274        -4.260593499         2.178058175    
HB       -0.1779833772        -4.368051198         3.566750371    
HB         1.513705053        -3.900661452         3.817387745    
C          1.478515097        -1.515324740         2.417458097    
O          2.425813761        -1.240993579         3.161597593    
N          1.438371123        -1.111341251         1.141909304    
H         0.6281925384        -1.369649987        0.5978555345    
CA         2.450678460       -0.2895436921        0.4697518024    
HA         2.978927661        0.3098962392         1.213851426    
CB         3.465793434        -1.223342450       -0.2065352411    
HB         4.251381479       -0.6355965111       -0.6833076046    
HB         2.967801638        -1.831922535       -0.9630467409    
HB         3.921659956        -1.877954680        0.5376002309    
C          1.819438971        0.6881654422       -0.5464906892    
O         0.6943434103        0.4807436878        -1.016186885    
N          2.552346586         1.748965562       -0.9004035021    
H          3.470608460         1.850995577       -0.4930749573    
CA         2.131585512         2.752004075        -1.884328993    
HA         1.096233375         3.026445688        -1.671807227    
CB         2.991970768         4.009095038        -1.696299855    
HB         2.656270700         4.792170580        -2.377586931    
HB         2.899386967         4.373010936       -0.6718767222    
HB         4.038458171         3.781346618        -1.905551475    
C          2.183806065         2.228603480        -3.339421025    
O          2.951277747         1.314019681        -3.665464245    
N          1.381048770         2.832807888        -4.226443037    
H         0.7906755128         3.581105956        -3.887489154    
CH         1.296722393         2.491198269        -5.647493529    
HH        0.9921819996         1.449149867        -5.765776069    
HH         2.268393795         2.631651258        -6.125745238    
HH        0.5642422502         3.130504236        -6.144297968    
    52
Energy=    -38.6822893616410    
HH        -7.256542159        0.9511596456E-01     1.970671457    
CH        -6.218094161        0.4148699956         2.048569702    
HH        -5.991483666        0.6700195199         3.083035036    
HH        -6.056478747         1.286821017         1.415988574    
C         -5.305224699       -0.7039828632         1.598650079    
O         -5.781821538        -1.775061601         1.221840233    
N         -3.997558550       -0.4518324558         1.640780041    
H         -3.707373628        0.4545765547         1.979165481    
CA        -2.938026486        -1.394154899         1.261823754    
HA        -3.310395254        -2.414285293         1.374577814    
CB        -2.592268769        -1.169940138       -0.2184730797    
HB        -1.836077358        -1.888068185       -0.5381807755    
HB        -2.207864161       -0.1590891488       -0.3638562018    
HB        -3.483685480        -1.305659985       -0.8324843148    
C         -1.687317524        -1.260536352         2.158548778    
O         -1.461563549       -0.2229857448         2.791368703    
N        -0.8520674888        -2.305790444         2.190571110    
H         -1.097581890        -3.127951064         1.655967464    
CA        0.3724083457        -2.362632090         3.001636344    
HA        0.1487308685        -1.961046056         3.991711539    
CB        0.7536052450        -3.839506960         3.170573096    
HB        0.9965801505        -4.277888593         2.201255279    
HB       -0.7557642423E-01    -4.388888197         3.618928239    
HB         1.622275854        -3.922202403         3.825310564    
C          1.549930199        -1.533345657         2.433204634    
O          2.515989501        -1.259794255         3.153119645    
N          1.476911369        -1.127523896         1.159693958    
H         0.6531804090        -1.385263477        0.6361111808    
CA         2.472021439       -0.3051237178        0.4629646971    
HA         3.018752993        0.2937318718         1.194071698    
CB         3.469894947        -1.238300107       -0.2393436011    
HB         4.243182427       -0.6500885298       -0.7352688308    
HB         2.953094670        -1.846351272       -0.9835654514    
HB         3.944398478        -1.893434100        0.4925802239    
C          1.815665599        0.6733834844       -0.5364321262    
O         0.6798530051        0.4655011352       -0.9793036248    
N          2.538912188         1.735333608       -0.9064139219    
H          3.466608601         1.837680802       -0.5211416880    
CA         2.093698069         2.739299379        -1.878562825    
HA         1.063466344         3.012390352        -1.640901876    
CB         2.957093544         3.997013073        -1.709455699    
HB         2.604382098         4.780672696        -2.381412805    
HB         2.888725628         4.359431796       -0.6826025528    
HB         3.998490773         3.770625878        -1.944044315    
C          2.111541588         2.217947459        -3.335214495    
O          2.872024350         1.304729109        -3.680872438    
N          1.287009241         2.822409524        -4.201852492    
H         0.7040686657         3.569526976        -3.847768044    
CH         1.168952635         2.482632247        -5.620938585    
HH        0.8628461603         1.440388755        -5.733313032    
HH         2.128690536         2.624875315        -6.122203540    
HH        0.4240159104         3.121750771        -6.099113007    
