    52
Energy=    -38.4667231886657    
HH        -4.102893432         3.285687588         2.858526216    
CH        -3.048997263         3.241490961         3.130393291    
HH        -2.458302206         3.765839744         2.380259714    
HH        -2.902953836         3.710113744         4.102879868    
C         -2.609031282         1.795870008         3.190316216    
O         -2.164764128         1.326895812         4.238694343    
N         -2.733689101         1.090612681         2.066837214    
H         -3.103362067         1.560566698         1.253966585    
CA        -2.337789880       -0.3139419477         1.925020170    
HA        -2.718465317       -0.8650581560         2.787427038    
CB        -3.012804613       -0.8861828577        0.6701259572    
HB        -2.785307904        -1.949247832        0.5780508417    
HB        -4.094885742       -0.7662815545        0.7438143716    
HB        -2.652899928       -0.3667455048       -0.2197662905    
C        -0.8052276711       -0.5065250256         1.889306019    
O        -0.5458436192E-01    0.3889924063         1.486878284    
N        -0.3370662315        -1.707705402         2.249942583    
H         -1.002447669        -2.404530933         2.556328281    
CA         1.089955175        -2.055117723         2.321639409    
HA         1.585559685        -1.329137089         2.968884880    
CB         1.204144560        -3.435036914         2.982669397    
HB        0.7192762281        -4.190416908         2.361982200    
HB        0.7318724588        -3.416957760         3.966060495    
HB         2.255976801        -3.697610399         3.105060689    
C          1.820838182        -2.021937303        0.9578995720    
O          3.046710745        -1.883355998        0.9148518401    
N          1.080312176        -2.103366478       -0.1553725680    
H         0.8906367037E-01    -2.263929456       -0.4821722665E-01
CA         1.603792821        -1.967496677        -1.519433203    
HA         2.541465361        -2.522216910        -1.586665827    
CB        0.5977488503        -2.627741490        -2.472191416    
HB       -0.3532584581        -2.093260468        -2.444522391    
HB        0.9872296516        -2.607131369        -3.491033184    
HB        0.4371951538        -3.666986758        -2.181164383    
C          1.910586873       -0.5067502952        -1.935375120    
O          2.530899605       -0.2873135228        -2.980204242    
N          1.485618576        0.4865692236        -1.138087834    
H          1.000694950        0.2272375320       -0.2874705219    
CA         1.672818819         1.927737618        -1.365854431    
HA         1.041489778         2.429287844       -0.6303746752    
CB         3.121785218         2.312105042        -1.020885130    
HB         3.229294978         3.397355377        -1.032842903    
HB         3.375238351         1.947450695       -0.2454943030E-01
HB         3.808981315         1.878563561        -1.748226053    
C          1.167855149         2.449107479        -2.738452157    
O          1.719685370         3.403984081        -3.298687089    
N         0.1163672129         1.824051220        -3.289884466    
H        -0.2861269446         1.054927948        -2.772480140    
CH       -0.4861461584         2.168366933        -4.578657086    
HH       -0.8449559768         3.199626539        -4.562017941    
HH        -1.328107964         1.505745553        -4.788438439    
HH        0.2516107204         2.063796240        -5.376961325    
    52
Energy=    -32.6652660363444    
HH        -3.578868258         3.635240176         2.629395223    
CH        -2.515652144         3.523749951         2.420343412    
HH        -2.343411871         3.627024447         1.349725079    
HH        -1.956075578         4.289977185         2.955539931    
C         -2.059679403         2.153336312         2.868762052    
O         -1.176139247         2.042689060         3.719337328    
N         -2.661973587         1.111427237         2.297210254    
H         -3.371177755         1.298308995         1.604273336    
CA        -2.326344778       -0.2895012858         2.571697637    
HA        -2.250400362       -0.4156470089         3.653650732    
CB        -3.481970365        -1.172610844         2.080047586    
HB        -3.282722341        -2.216185725         2.327952179    
HB        -4.412226761       -0.8697145156         2.563130840    
HB        -3.590445954        -1.079199414        0.9981729381    
C        -0.9733184457       -0.7158434406         1.956377605    
O        -0.5202864456       -0.1258644982        0.9734291571    
N        -0.3615718176        -1.756649161         2.539160488    
H        -0.8449827624        -2.146313656         3.336079019    
CA        0.9036013865        -2.435307883         2.197910757    
HA         1.552266260        -2.341912445         3.070763001    
CB        0.6024139476        -3.933629161         2.033999536    
HB       -0.9968756764E-01    -4.094867094         1.214573673    
HB        0.1683690921        -4.327203201         2.954361267    
HB         1.526798942        -4.474847783         1.825927244    
C          1.731147578        -1.889765944         1.005517412    
O          2.806445596        -1.318391299         1.210381906    
N          1.262080322        -2.084191469       -0.2346230715    
H         0.3674758906        -2.542754721       -0.3301961587    
CA         1.999344440        -1.767948868        -1.465685610    
HA         3.024285463        -2.124496439        -1.348069635    
CB         1.356041463        -2.565445140        -2.608455655    
HB        0.3287687070        -2.232927629        -2.766251636    
HB         1.923455087        -2.414641312        -3.527926313    
HB         1.358923910        -3.629589685        -2.367445758    
C          2.088145976       -0.2601270692        -1.808679202    
O          2.871828439        0.1219143971        -2.683475731    
N          1.301815283        0.5926108197        -1.137937854    
H         0.7000356127        0.1973127881       -0.4230957375    
CA         1.233810938         2.050274407        -1.317805188    
HA        0.3606797495         2.378128543       -0.7511864861    
CB         2.453007193         2.702597402       -0.6438928739    
HB         2.333517964         3.786582564       -0.6329019320    
HB         2.540464943         2.350700330        0.3849216158    
HB         3.363196285         2.450293715        -1.188980949    
C         0.9602157185         2.521859960        -2.771501597    
O          1.418245671         3.591858649        -3.190548196    
N         0.2132437608         1.724974057        -3.550785824    
H        -0.1309805215        0.8688577414        -3.138245209    
CH       -0.1359270655         1.998969948        -4.945541382    
HH       -0.6923142374         2.935945451        -5.016378116    
HH       -0.7536535146         1.191432018        -5.343359651    
HH        0.7701854624         2.079510339        -5.549671441    
    52
Energy=    -36.6039294733349    
HH        -2.644033579         3.926821421         2.329367115    
CH        -1.751630912         3.544880947         1.835056861    
HH        -1.957922980         3.402153385        0.7751888402    
HH       -0.9351164287         4.256000594         1.955014496    
C         -1.367762099         2.219947286         2.454822329    
O        -0.2818379677         2.092427710         3.019912247    
N         -2.257156984         1.234092231         2.348093708    
H         -3.121128038         1.426128976         1.863279445    
CA        -2.040317604       -0.1274436041         2.846689285    
HA        -1.588739319       -0.6087365865E-01     3.838620097    
CB        -3.402796842       -0.8163424794         3.003027697    
HB        -3.266471867        -1.812737856         3.425877897    
HB        -4.038233370       -0.2348516238         3.672718510    
HB        -3.890348498       -0.9068295711         2.030942440    
C         -1.081625899       -0.9425351538         1.950533827    
O         -1.010109521       -0.7248218415        0.7361949281    
N        -0.3692751040        -1.905885153         2.548742668    
H        -0.4976471807        -2.026567103         3.543643269    
CA        0.5995994104        -2.796153476         1.894458739    
HA         1.200235668        -3.244296688         2.687974466    
CB       -0.1502371481        -3.962480848         1.225509161    
HB       -0.8127352271        -3.593029120        0.4413018475    
HB       -0.7488835988        -4.487887842         1.971070137    
HB        0.5649914858        -4.666074434        0.7964500115    
C          1.618250647        -2.047405511        0.9977799354    
O          2.486205467        -1.336160408         1.512866237    
N          1.519901958        -2.185825667       -0.3308259315    
H         0.7854157992        -2.779737200       -0.6884365737    
CA         2.410136153        -1.545959178        -1.307763300    
HA         3.432956867        -1.608128178       -0.9316453606    
CB         2.339789157        -2.362308469        -2.605765754    
HB         1.333491184        -2.315239785        -3.025134844    
HB         3.046782089        -1.960332014        -3.332876176    
HB         2.599704268        -3.402848594        -2.405228386    
C          2.115501015       -0.4579029241E-01    -1.559254927    
O          2.903963341        0.6274106874        -2.230195606    
N         0.9982300122        0.4808961513        -1.036220348    
H         0.4087008672       -0.1342345230       -0.4862069495    
CA        0.5417094374         1.872371258        -1.171542150    
HA       -0.4748505405         1.889534078       -0.7755574568    
CB         1.378755365         2.775122825       -0.2493967931    
HB        0.9370235018         3.771291507       -0.2067687787    
HB         1.401273455         2.358820995        0.7580788758    
HB         2.398763904         2.854380180       -0.6266615242    
C         0.4049524737         2.382042231        -2.631652360    
O         0.5780892135         3.575366191        -2.907252614    
N         0.9452548382E-01     1.481536490        -3.576597871    
H        -0.3863150488E-01    0.5256339941        -3.276467060    
CH       -0.6279710016E-01     1.777253615        -5.001458908    
HH       -0.8586442081         2.510660295        -5.147263242    
HH       -0.3180569705        0.8670845966        -5.547729322    
HH        0.8680425655         2.180922428        -5.405312834    
