    52
Energy=    -38.1634053150311    
HH        -4.806837232       -0.7707615709E-01   -0.8972078205    
CH        -4.957368418       -0.8478203104       -0.1422169686    
HH        -5.968745492       -0.7767651954        0.2560198886    
HH        -4.811346004        -1.830172129       -0.5896641362    
C         -3.964076446       -0.6590633287        0.9816474637    
O         -3.151692220        0.2652613827        0.9424578281    
N         -4.020754201        -1.536096498         1.983183150    
H         -4.711295343        -2.270547332         1.935723439    
CA        -3.113934911        -1.514123666         3.133512411    
HA        -3.130115121       -0.5082996790         3.558296549    
CB        -3.641481773        -2.478615084         4.203923306    
HB        -3.653253485        -3.498894122         3.817043979    
HB        -2.996482785        -2.439307407         5.082943393    
HB        -4.652696529        -2.191877070         4.496397090    
C         -1.659190226        -1.838939815         2.728383914    
O         -1.408731197        -2.783621323         1.971652836    
N        -0.7028230916        -1.056191176         3.245914645    
H        -0.9962778377       -0.3218894506         3.875673324    
CA        0.7392930313        -1.147511088         2.966251054    
HA         1.182990323       -0.2433649504         3.386555942    
CB         1.333204286        -2.326196936         3.756370246    
HB        0.9684397627        -3.271168179         3.352325845    
HB         1.048830162        -2.250391390         4.806730719    
HB         2.421566705        -2.307092126         3.688138630    
C          1.132657941        -1.114752296         1.463565830    
O          2.197872604        -1.612701682         1.081079155    
N         0.2884715955       -0.5320067917        0.6023211630    
H        -0.5652463109       -0.1362929074        0.9681122492    
CA        0.5266752856       -0.4132921849       -0.8396494955    
HA        0.9059948007        -1.370530426        -1.203249818    
CB       -0.8150682219       -0.1543391718        -1.538131679    
HB        -1.229377036        0.8001673218        -1.209915104    
HB       -0.6704188311       -0.1249595172        -2.618898740    
HB        -1.517999290       -0.9540682814        -1.300259344    
C          1.578272033        0.6646092084        -1.190487859    
O          1.802084836         1.615923211       -0.4317380875    
N          2.209905287        0.5283549954        -2.361305906    
H          1.968341712       -0.2602172185        -2.943596115    
CA         3.199758607         1.477154113        -2.881725288    
HA         3.890358592         1.728353424        -2.074048413    
CB         4.009631006        0.7800841620        -3.983655133    
HB         4.793814998         1.447174705        -4.344342744    
HB         4.474185262       -0.1243265090        -3.587808542    
HB         3.357286659        0.5158170348        -4.817566940    
C          2.566108115         2.798390461        -3.378517069    
O          1.390848966         2.841576350        -3.764111523    
N          3.359617812         3.878363463        -3.395506594    
H          4.312567109         3.762225633        -3.076424437    
CH         2.950190196         5.210914097        -3.842588443    
HH         2.118456930         5.572113264        -3.234016454    
HH         3.783562340         5.910213055        -3.750238684    
HH         2.634225346         5.175815320        -4.887352714    
    52
Energy=    -37.4022045318915    
HH        -5.588523558        0.5772491741E-01   -0.2255504866    
CH        -4.978386036       -0.8405867403       -0.1431372045    
HH        -5.624597621        -1.695388981        0.5352319462E-01
HH        -4.436615286        -1.007870977        -1.072963085    
C         -3.981973650       -0.6574265951        0.9807039465    
O         -3.167123304        0.2638844474        0.9296503952    
N         -4.032814838        -1.525071204         1.991735543    
H         -4.723834726        -2.259605985         1.958143882    
CA        -3.119214695        -1.491323799         3.136607762    
HA        -3.130721152       -0.4803182395         3.549093907    
CB        -3.643212258        -2.441114625         4.221826597    
HB        -3.659020308        -3.466172294         3.847927687    
HB        -2.993620715        -2.392125689         5.096977404    
HB        -4.652304231        -2.148586885         4.515916939    
C         -1.667026547        -1.824390546         2.728822451    
O         -1.422920804        -2.771293128         1.972798021    
N        -0.7055105115        -1.046798646         3.244624034    
H        -0.9941148981       -0.3102702603         3.874035152    
CA        0.7361504759        -1.148266639         2.965921042    
HA         1.185620535       -0.2465046708         3.385212524    
CB         1.321574721        -2.329688462         3.758280947    
HB        0.9508061193        -3.272807477         3.355373138    
HB         1.036911261        -2.250400588         4.808306752    
HB         2.410092987        -2.317970113         3.690871285    
C          1.131121638        -1.120408752         1.463590662    
O          2.194504179        -1.623857951         1.083224213    
N         0.2905593676       -0.5354442066        0.6003802392    
H        -0.5616700395       -0.1352353610        0.9646338736    
CA        0.5309677922       -0.4198814173       -0.8414597131    
HA        0.9095390897        -1.378286504        -1.202761925    
CB       -0.8095639623       -0.1606865341        -1.542112021    
HB        -1.223699519        0.7944683286        -1.215536162    
HB       -0.6634346375       -0.1327215418        -2.622721694    
HB        -1.513220221       -0.9597168920        -1.304178502    
C          1.584512522        0.6559166272        -1.192856345    
O          1.809125385         1.607911282       -0.4352028885    
N          2.217030604        0.5170449805        -2.362887611    
H          1.974778557       -0.2719626802        -2.944302648    
CA         3.208856519         1.463566131        -2.883705301    
HA         3.899076261         1.714840166        -2.075726479    
CB         4.018695618        0.7636710061        -3.983867423    
HB         4.804261939         1.429026975        -4.344750887    
HB         4.481462104       -0.1408976492        -3.586291698    
HB         3.366737791        0.4992335535        -4.818027423    
C          2.577741152         2.785079651        -3.382980658    
O          1.402919533         2.829547684        -3.769760636    
N          3.372949645         3.863790084        -3.400746746    
H          4.325411595         3.746621664        -3.080588150    
CH         2.966028440         5.196339203        -3.850115954    
HH         2.134280048         5.559701725        -3.242853875    
HH         3.800402482         5.894468761        -3.757965366    
HH         2.651005460         5.160244648        -4.895130709    
    52
Energy=    -38.1634053150393    
HH        -5.973109138       -0.7420779170        0.2571505975    
CH        -4.962004735       -0.8205696651       -0.1403817196    
HH        -4.821345947        -1.805689086       -0.5834408971    
HH        -4.806873006       -0.5401868423E-01   -0.8987029635    
C         -3.968070409       -0.6324456422        0.9830208502    
O         -3.150489712        0.2871179751        0.9400710730    
N         -4.030035765        -1.504723926         1.988388530    
H         -4.724677066        -2.235485003         1.943900055    
CA        -3.123519680        -1.482777339         3.138957253    
HA        -3.134198243       -0.4750158698         3.559300028    
CB        -3.656863188        -2.439561991         4.213404427    
HB        -3.674230833        -3.461454013         3.831019065    
HB        -3.011968644        -2.400005488         5.092489980    
HB        -4.666555053        -2.145860012         4.504224595    
C         -1.670478596        -1.817545391         2.735821188    
O         -1.425062275        -2.766945039         1.983354617    
N        -0.7099123437        -1.037910343         3.250265800    
H        -0.9994607422       -0.2992030559         3.876671399    
CA        0.7317679311        -1.138564413         2.971560344    
HA         1.180389768       -0.2350825049         3.388048772    
CB         1.318760626        -2.317075800         3.767091451    
HB        0.9488348243        -3.261753676         3.367073579    
HB         1.034440417        -2.235045239         4.816998711    
HB         2.407237648        -2.304388425         3.699193652    
C          1.125849929        -1.114639104         1.468896403    
O          2.188385959        -1.620247211         1.089015435    
N         0.2852616090       -0.5309600884        0.6047694668    
H        -0.5663496197       -0.1288468240        0.9684865157    
CA        0.5246459821       -0.4199419593       -0.8376187032    
HA        0.8987097072        -1.380889594        -1.196853326    
CB       -0.8153702897       -0.1565347729        -1.537749198    
HB        -1.224425299        0.8017219617        -1.213899543    
HB       -0.6701705142       -0.1327320336        -2.618579668    
HB        -1.522870488       -0.9512453244        -1.296625584    
C          1.582410279        0.6504769080        -1.192798687    
O          1.811294665         1.603852744       -0.4381609133    
N          2.213687221        0.5055173902        -2.362763150    
H          1.967903864       -0.2842434457        -2.941666726    
CA         3.209044055         1.446437017        -2.886977541    
HA         3.900755864         1.697308473        -2.080150633    
CB         4.015380059        0.7399783978        -3.985516423    
HB         4.803430225         1.401056170        -4.348838586    
HB         4.474701859       -0.1652752310        -3.585512430    
HB         3.361859212        0.4757088484        -4.818505780    
C          2.583007696         2.769011059        -3.389826337    
O          1.408147850         2.817100623        -3.776056716    
N          3.382581159         3.844422821        -3.411269046    
H          4.334748431         3.724339287        -3.091314037    
CH         2.980809882         5.177269991        -3.864372355    
HH         2.150904238         5.545816482        -3.257713444    
HH         3.818067205         5.872274581        -3.774787564    
HH         2.665023721         5.139343182        -4.909091816    
