    52
Energy=    -39.6092682916850    
HH        -3.889425237         2.258891732         3.272432079    
CH        -3.603665852         1.558103819         4.055895962    
HH        -2.641650900         1.852951346         4.473226236    
HH        -4.358546714         1.561278737         4.841275987    
C         -3.487891896        0.1703077938         3.465949892    
O         -4.194768908       -0.7429116481         3.893266435    
N         -2.596512679        0.1804192955E-01     2.487528313    
H         -2.053493123        0.8267969497         2.220333258    
CA        -2.311112478        -1.239091537         1.786052819    
HA        -2.555759314        -2.078444242         2.440012253    
CB        -3.209045577        -1.317515242        0.5411881765    
HB        -2.979655784       -0.4951796090       -0.1387425531    
HB        -3.048048338        -2.264366232        0.2385324477E-01
HB        -4.257651056        -1.255909471        0.8359672158    
C        -0.8199309224        -1.366581115         1.408911083    
O        -0.1020594324       -0.3675160227         1.303622115    
N        -0.3570356650        -2.594590526         1.148137473    
H        -0.9939687146        -3.374308196         1.241107155    
CA         1.043565180        -2.895062784        0.8163994928    
HA         1.677203628        -2.479729354         1.602271618    
CB         1.211219738        -4.420146503        0.8292030541    
HB        0.5926985526        -4.872546782        0.5224585661E-01
HB        0.9193958033        -4.818568124         1.802078517    
HB         2.255699375        -4.676325357        0.6457673606    
C          1.524008964        -2.286403413       -0.5235452142    
O          2.730383341        -2.134497925       -0.7373216825    
N         0.5959719436        -1.910565403        -1.413273876    
H        -0.3699250701        -2.102971887        -1.191488118    
CA        0.8791711800        -1.253368770        -2.693809722    
HA         1.789094503        -1.687525835        -3.111992335    
CB       -0.2754524979        -1.581662470        -3.650365040    
HB        -1.205774960        -1.149495091        -3.278180983    
HB       -0.6333434877E-01    -1.170754208        -4.638379271    
HB       -0.3887957003        -2.663189789        -3.739209481    
C          1.118509367        0.2735351751        -2.585919939    
O          1.530171305        0.8994162823        -3.568794963    
N         0.8650711932        0.8877476602        -1.422140879    
H         0.5549105095        0.3277537198       -0.6390505750    
CA         1.044437190         2.325784666        -1.194405791    
HA        0.6410814703         2.859347451        -2.057546854    
CB        0.2140576484         2.739118923        0.2839301862E-01
HB        0.2583250618         3.821504964        0.1560488356    
HB        0.6084702462         2.261583337        0.9263194148    
HB       -0.8271023833         2.444404212       -0.1111241516    
C          2.529039678         2.736392993        -1.050180626    
O          3.385372245         1.929753732       -0.6662363559    
N          2.831123420         4.010830804        -1.334943888    
H          2.075472508         4.614501353        -1.631518465    
CH         4.171345199         4.593153573        -1.246750466    
HH         4.143174582         5.645328935        -1.536888316    
HH         4.855771085         4.062677250        -1.912141478    
HH         4.545862933         4.520020000       -0.2235358418    
    52
Energy=    -33.4556231991525    
HH        -4.192476112         2.295501088         3.072165740    
CH        -4.037919149         1.538463654         3.840002061    
HH        -3.120420840         1.756557072         4.385163839    
HH        -4.881329919         1.540654308         4.529448314    
C         -3.918769625        0.1805062842         3.184871792    
O         -4.715987159       -0.7138154463         3.469319384    
N         -2.923476666        0.3200737438E-01     2.311588257    
H         -2.313568194        0.8227917884         2.159307002    
CA        -2.617072784        -1.199394223         1.574281645    
HA        -2.984831404        -2.057005508         2.141115815    
CB        -3.355621865        -1.158457463        0.2270597167    
HB        -3.001749376       -0.3154544452       -0.3689254332    
HB        -3.179742547        -2.083822519       -0.3232788901    
HB        -4.428291219        -1.052122790        0.3954245452    
C         -1.098919925        -1.395082584         1.375621738    
O        -0.3216675941       -0.4358952529         1.415074704    
N        -0.6742389502        -2.635339111         1.106179053    
H         -1.362074723        -3.375719227         1.073280240    
CA        0.7378238548        -3.015280366        0.9493770103    
HA         1.278963925        -2.686877308         1.838736432    
CB        0.8065196142        -4.547108716        0.8927387759    
HB        0.2769485915        -4.914430183        0.1208632696E-01
HB        0.3557563518        -4.973453908         1.790212580    
HB         1.848315312        -4.866646981        0.8397673453    
C          1.441938454        -2.373687246       -0.2709339821    
O          2.674389248        -2.323786593       -0.3194547795    
N         0.6772827585        -1.848630706        -1.237237552    
H        -0.3227624277        -1.961723575        -1.156466161    
CA         1.185198638        -1.126363952        -2.409198707    
HA         2.037831767        -1.678372205        -2.808960561    
CB        0.7980418375E-01    -1.135396501        -3.474313720    
HB       -0.7890198197       -0.5791500093        -3.118532391    
HB        0.4473222393       -0.6717406950        -4.390824382    
HB       -0.2140879657        -2.162309999        -3.696902432    
C          1.680113093        0.3122374640        -2.108989996    
O          2.283962764        0.9301754057        -2.989501824    
N          1.413866822        0.8297263934       -0.8967475290    
H         0.8873501037        0.2312280839       -0.2739001793    
CA         1.816633202         2.120785680       -0.3091063542    
HA        0.9028878709         2.671614948       -0.7852922337E-01
CB         2.507191983         1.818361221         1.030395180    
HB         2.786889251         2.752800198         1.518829174    
HB         3.403926226         1.219082241        0.8651922972    
HB         1.828784718         1.272049648         1.686309672    
C          2.693034634         3.046355436        -1.193226513    
O          3.918521173         2.888313599        -1.273974030    
N          2.062301807         4.044245627        -1.829192810    
H          1.059889142         4.112811148        -1.713484947    
CH         2.714784941         5.028599889        -2.694014190    
HH         1.976217155         5.728050880        -3.090598428    
HH         3.207194956         4.525478140        -3.528871051    
HH         3.462383784         5.588669745        -2.128382574    
    52
Energy=    -38.3818569205248    
HH        -3.701148982         2.723983341         3.009228401    
CH        -3.786775081         1.884706191         3.698328142    
HH        -2.928956670         1.877339752         4.369646373    
HH        -4.703522301         1.981402870         4.278772253    
C         -3.815923852        0.5937128221         2.911001053    
O         -4.787205691       -0.1584636563         2.995142273    
N         -2.751280171        0.3424737933         2.150195617    
H         -1.998663261         1.016178154         2.162899342    
CA        -2.565182091       -0.8521518621         1.318220166    
HA        -3.148163950        -1.674662824         1.737351143    
CB        -3.097144202       -0.5525710259       -0.9225750595E-01
HB        -2.526837656        0.2614232978       -0.5430942844    
HB        -3.010164561        -1.440372693       -0.7202616190    
HB        -4.148412190       -0.2657444167       -0.3873774695E-01
C         -1.090794995        -1.306550826         1.275568254    
O        -0.1723843532       -0.5117503110         1.502406439    
N        -0.8542871961        -2.577304744        0.9281564416    
H         -1.648777447        -3.174366937        0.7418128695    
CA        0.4803709621        -3.193666605        0.8903007812    
HA        0.9485240388        -3.053533591         1.866429366    
CB        0.2946517167        -4.700066993        0.6657884907    
HB       -0.1714231140        -4.880784115       -0.3042925864    
HB       -0.3339298854        -5.119043388         1.453036373    
HB         1.265225224        -5.197648110        0.6917923461    
C          1.434191556        -2.580894964       -0.1631212515    
O          2.656271703        -2.701076171       -0.3695382840E-01
N         0.8939718711        -1.889444034        -1.175218733    
H        -0.1132694162        -1.871160912        -1.245608747    
CA         1.659960629        -1.149522390        -2.184614243    
HA         2.508124557        -1.763348558        -2.493320017    
CB        0.7521776322       -0.9532129789        -3.406560126    
HB       -0.1050427720       -0.3316921124        -3.142485496    
HB         1.311481131       -0.4656011087        -4.206293482    
HB        0.3999501732        -1.920896158        -3.767151960    
C          2.235371356        0.1971569481        -1.678452972    
O          3.054837371        0.8089872566        -2.370370701    
N          1.818878188        0.6628454909       -0.4898392486    
H          1.159944426        0.9489932949E-01    0.2892415517E-01
CA         2.243754784         1.916352203        0.1522061766    
HA         1.568830884         2.061085542        0.9975243656    
CB         3.647962591         1.728802594        0.7516006459    
HB         3.907175792         2.593339852         1.363854295    
HB         4.385463299         1.622905081       -0.4470222367E-01
HB         3.666979261        0.8377059227         1.380475067    
C          2.068549191         3.192952232       -0.7141113635    
O          2.839299894         4.153196545       -0.5956230500    
N          1.054544686         3.211129507        -1.592666688    
H         0.4629855515         2.392675955        -1.631031543    
CH        0.7444959438         4.319580933        -2.496949577    
HH       -0.1313779986         4.076838605        -3.101843877    
HH         1.590065775         4.508513572        -3.161648866    
HH        0.5366279496         5.225343496        -1.923449089    
