    52
Energy=    -40.6448843121890    
HH        -5.019777182       -0.2716754824         1.109096109    
CH        -4.295125196       -0.9967861001        0.7406810375    
HH        -4.402144596        -1.929781431         1.292686868    
HH        -4.466918324        -1.177825785       -0.3197913400    
C         -2.900456434       -0.4530912536        0.9425420324    
O         -2.152883504       -0.2914007273       -0.2070035289E-01
N         -2.534980734       -0.1944605183         2.198493132    
H         -3.212057675       -0.3610784564         2.929545296    
CA        -1.253817900        0.4159213507         2.577863234    
HA        -1.169441490         1.377250952         2.068072973    
CB        -1.286820935        0.6813326734         4.088539829    
HB        -1.374367955       -0.2598038537         4.634025951    
HB       -0.3677548740         1.184429600         4.392725961    
HB        -2.134564928         1.322352559         4.335162746    
C        -0.1714923217E-01   -0.4233753303         2.182193768    
O          1.058823062        0.1332114817         1.949008379    
N        -0.1699230323        -1.746345275         2.041040022    
H         -1.070636876        -2.143076767         2.269701669    
CA        0.8816230947        -2.657151693         1.572646257    
HA         1.792697967        -2.452828378         2.138110015    
CB        0.4366901607        -4.090250638         1.892551005    
HB       -0.4708086182        -4.334696067         1.337941403    
HB        0.2455415375        -4.190400150         2.962059053    
HB         1.224350372        -4.790580115         1.610980732    
C          1.227380000        -2.492984842        0.7215037202E-01
O          2.301197540        -2.921961537       -0.3610442655    
N         0.3439321349        -1.861646854       -0.7137835242    
H        -0.5263494977        -1.557276758       -0.2939345258    
CA        0.5144672801        -1.581910178        -2.145716897    
HA         1.413803798        -2.085420510        -2.503344616    
CB       -0.6813104625        -2.195771499        -2.887680991    
HB        -1.604438423        -1.699966130        -2.583786790    
HB       -0.5502271595        -2.076159768        -3.963850311    
HB       -0.7522685467        -3.260384826        -2.660392888    
C         0.7026074049       -0.7812090395E-01    -2.468259910    
O         0.8352088000        0.2938177506        -3.639382968    
N         0.7145723069        0.7926442768        -1.451460822    
H         0.6279434532        0.4263981387       -0.5159829675    
CA        0.8759691585         2.241956799        -1.595059577    
HA        0.2610213027         2.572933944        -2.434503501    
CB        0.3305380960         2.917419141       -0.3291897276    
HB        0.3725676189         4.001654374       -0.4412152173    
HB        0.9275927479         2.627538095        0.5366622775    
HB       -0.7074851955         2.621983365       -0.1687842804    
C          2.334359674         2.661343195        -1.896017597    
O          3.289546413         1.943866306        -1.572754144    
N          2.507882503         3.846059356        -2.498224463    
H          1.679314620         4.381612291        -2.721998228    
CH         3.805945341         4.422181617        -2.853520841    
HH         3.666799771         5.391537953        -3.336256278    
HH         4.413860302         4.559504449        -1.956766609    
HH         4.335472608         3.759261961        -3.541076490    
    52
Energy=    -36.8417334645554    
HH        -5.127957775       -0.5971691582         1.255642208    
CH        -4.355509740        -1.246947664        0.8460659036    
HH        -4.363424453        -2.198878272         1.375608657    
HH        -4.545218933        -1.416490578       -0.2132581697    
C         -3.007317387       -0.5884603216         1.020575862    
O         -2.308183197       -0.3378530583        0.4003834773E-01
N         -2.624841591       -0.3298415424         2.271354321    
H         -3.260423405       -0.5716443704         3.018451842    
CA        -1.387281293        0.3775479898         2.625429875    
HA        -1.400376306         1.353916683         2.137929016    
CB        -1.390991458        0.6045147854         4.142759769    
HB        -1.382106220       -0.3528692998         4.666489209    
HB       -0.5067573878         1.175256471         4.430322106    
HB        -2.279896627         1.166877272         4.432569279    
C        -0.1002031999       -0.3475703478         2.169333938    
O         0.9137687986        0.3017884670         1.900186833    
N        -0.1444277102        -1.677821031         2.021523864    
H        -0.9984596305        -2.151845096         2.280144394    
CA        0.9669756758        -2.492830262         1.517576123    
HA         1.877135540        -2.200206577         2.044424840    
CB        0.6692911868        -3.957276106         1.865066918    
HB       -0.2332218265        -4.290011998         1.349648448    
HB        0.5311329775        -4.063296554         2.942143793    
HB         1.506361756        -4.585083939         1.556307284    
C          1.236424881        -2.313787362        0.3806857050E-02
O          2.335364395        -2.625553794       -0.4650355365    
N         0.2600558481        -1.799866383       -0.7575123309    
H        -0.6208452533        -1.575145096       -0.3113967785    
CA        0.3612600452        -1.531360919        -2.198038799    
HA         1.187560359        -2.112841054        -2.610063614    
CB       -0.9274982405        -2.035424462        -2.862158182    
HB        -1.783253741        -1.460663087        -2.505499221    
HB       -0.8518644680        -1.924595737        -3.944615962    
HB        -1.078110332        -3.090209621        -2.627929809    
C         0.6530558070       -0.4934977069E-01    -2.538403615    
O         0.8813419837        0.2835058241        -3.706371169    
N         0.6529029785        0.8436141803        -1.540985366    
H         0.4836736815        0.5046555549       -0.6064085600    
CA        0.9337483339         2.274492357        -1.700044549    
HA        0.4465588109         2.611570469        -2.617474079    
CB        0.2931839533         3.052164383       -0.5340637153    
HB       -0.4826325337         3.713155061       -0.9225818527    
HB         1.042155017         3.658149652       -0.2178652163E-01
HB       -0.1601450105         2.376701732        0.1923036206    
C          2.443104520         2.577358594        -1.858837197    
O          3.304551298         1.795194232        -1.437514821    
N          2.764083684         3.735608161        -2.451928585    
H          2.004104918         4.328839368        -2.758603181    
CH         4.130546490         4.206734933        -2.684083860    
HH         4.113028863         5.175768002        -3.186790810    
HH         4.657717561         4.312704250        -1.733585938    
HH         4.671858655         3.494774838        -3.310731088    
    52
Energy=    -40.6448843121917    
HH        -5.026202136       -0.2256853076         1.090150111    
CH        -4.308047796       -0.9559349928        0.7191712452    
HH        -4.426918559        -1.891522729         1.264321874    
HH        -4.478084341        -1.127803077       -0.3431087777    
C         -2.908370985       -0.4285768303        0.9295306807    
O         -2.155782960       -0.2682352644       -0.3002487147E-01
N         -2.544514591       -0.1825425457         2.188479114    
H         -3.225858834       -0.3469611221         2.916056286    
CA        -1.258241049        0.4114843529         2.576420243    
HA        -1.161856232         1.375354531         2.073603835    
CB        -1.293648943        0.6667966988         4.088781988    
HB        -1.393112595       -0.2770946193         4.627422607    
HB       -0.3703324462         1.157934690         4.399568508    
HB        -2.135361894         1.315118140         4.336971136    
C        -0.2922474421E-01   -0.4382236277         2.179132030    
O          1.053420824        0.1084338040         1.953466556    
N        -0.1956012250        -1.758479950         2.028281788    
H         -1.101279770        -2.147135999         2.251127693    
CA        0.8477940370        -2.677212182         1.557147297    
HA         1.759029756        -2.486541940         2.127102579    
CB        0.3865051614        -4.107650752         1.865586948    
HB       -0.5216198910        -4.338553083         1.306219078    
HB        0.1905942713        -4.213133907         2.933719624    
HB         1.167627113        -4.814393883         1.581836276    
C          1.200479494        -2.506392900        0.5900837225E-01
O          2.271158531        -2.943815372       -0.3735083165    
N         0.3265404317        -1.860242378       -0.7255168990    
H        -0.5418974195        -1.549498583       -0.3065199405    
CA        0.5050095649        -1.572464023        -2.154887544    
HA         1.400161866        -2.083072403        -2.512948798    
CB       -0.6946650096        -2.168378255        -2.905146159    
HB        -1.613503156        -1.664849074        -2.600950991    
HB       -0.5585851192        -2.042746600        -3.980008552    
HB       -0.7777546724        -3.233716609        -2.685494697    
C         0.7102854365       -0.6857949994E-01    -2.466345466    
O         0.8509026054        0.3099978927        -3.634402263    
N         0.7280069297        0.7949674370        -1.443492504    
H         0.6342368125        0.4232178752       -0.5108784165    
CA        0.9053403074         2.243429882        -1.576480358    
HA        0.2968688633         2.586745385        -2.415688200    
CB        0.3627557390         2.915924988       -0.3078105018    
HB       -0.6789075193         2.630495053       -0.1529816678    
HB        0.4167282395         4.000396920       -0.4121648887    
HB        0.9536816862         2.613711168        0.5580291507    
C          2.369152842         2.649279902        -1.869571148    
O          3.315511141         1.919424693        -1.548056920    
N          2.557380617         3.836204229        -2.462948442    
H          1.735349154         4.382110587        -2.685809165    
CH         3.862734612         4.400865475        -2.809831881    
HH         3.735603873         5.374962769        -3.286296922    
HH         4.468966723         4.525491439        -1.910088966    
HH         4.387545557         3.737089399        -3.500171764    
