    52
Energy=    -37.9782296581954    
HH        -4.681614651       -0.6990096171E-01   -0.2207306574E-02
CH        -3.918358796       -0.8325684687       -0.1517391924    
HH        -4.235326571        -1.761555468        0.3205991988    
HH        -3.770218792       -0.9966051214        -1.218507473    
C         -2.624056343       -0.3699530318        0.4729022938    
O         -1.613319225       -0.2451940318       -0.2163498620    
N         -2.638881638       -0.1403421347         1.785607146    
H         -3.511470018       -0.2736981656         2.276892061    
CA        -1.501746857        0.3986861584         2.544099669    
HA        -1.212437771         1.349917934         2.093555985    
CB        -1.981305289        0.6772860678         3.974631931    
HB        -2.281355530       -0.2538188084         4.458273092    
HB        -1.174263884         1.132909598         4.550242423    
HB        -2.828582181         1.364402930         3.955811630    
C        -0.2484375516       -0.5079993272         2.537962966    
O         0.8692162139       -0.1777512474E-01     2.722424544    
N        -0.4130872733        -1.812457452         2.281812385    
H         -1.357362295        -2.156343738         2.178596788    
CA        0.6878765193        -2.768923445         2.122281952    
HA         1.397856288        -2.621967583         2.938291631    
CB        0.1053279621        -4.182399640         2.250314947    
HB       -0.6071521730        -4.370329137         1.445363659    
HB       -0.3980706310        -4.291278115         3.212159904    
HB        0.9097681993        -4.916926243         2.191002119    
C          1.467260873        -2.595909912        0.7964363036    
O          2.637157599        -2.983533284        0.7173365395    
N         0.8427055889        -2.002382296       -0.2306179048    
H        -0.1200159271        -1.721327833       -0.9595392563E-01
CA         1.454834862        -1.698464468        -1.530368260    
HA         2.377259635        -2.270868261        -1.641223137    
CB        0.4897228425        -2.163911875        -2.628032131    
HB        0.9385561070        -1.990490745        -3.606990767    
HB       -0.4486114668        -1.610702081        -2.564504113    
HB        0.2880259771        -3.230256147        -2.516943293    
C          1.824019013       -0.2063454311        -1.689437372    
O          2.849996147        0.1074888222        -2.302082751    
N          1.020616138        0.6943567487        -1.103664798    
H         0.1866976932        0.3322821703       -0.6574473160    
CA         1.141870973         2.158762242        -1.156272572    
HA        0.2558588236         2.560136700       -0.6609762413    
CB         2.344881762         2.589461765       -0.2966885243    
HB         3.278477067         2.296738314       -0.7782461693    
HB         2.285494320         2.119057064        0.6860800528    
HB         2.342482643         3.671188198       -0.1598991278    
C          1.124144003         2.769252229        -2.584673534    
O         0.9618239576         2.069525590        -3.592354921    
N          1.241621006         4.102257405        -2.672398248    
H          1.355087342         4.617293152        -1.809455048    
CH         1.224903964         4.866241809        -3.921310661    
HH         1.348343923         5.930632670        -3.711847159    
HH        0.2755286921         4.717291088        -4.440029111    
HH         2.038259029         4.539059472        -4.572458303    
    52
Energy=    -37.5226723782591    
HH        -4.873775682       -0.4435743529       -0.1430773442    
CH        -4.031518039        -1.122775459       -0.2692518245    
HH        -4.247776302        -2.066193877        0.2305845700    
HH        -3.862848056        -1.301711944        -1.330589933    
C         -2.797129699       -0.5037142163        0.3427220485    
O         -1.802990034       -0.2890935676       -0.3490135125    
N         -2.844183383       -0.2385843995         1.648349031    
H         -3.699919878       -0.4486968734         2.142449275    
CA        -1.769954174        0.4341600263         2.390260822    
HA        -1.583492324         1.401675557         1.920472323    
CB        -2.269512446        0.6874819986         3.818659944    
HB        -2.470997940       -0.2603761204         4.320580950    
HB        -1.510607273         1.233311301         4.381185253    
HB        -3.182623503         1.284105964         3.792974069    
C        -0.4325022187       -0.3411358902         2.391743385    
O         0.6368357272        0.2714212841         2.455976107    
N        -0.4759622535        -1.673586118         2.262723866    
H         -1.384720834        -2.114755071         2.239545172    
CA        0.7084778821        -2.534359314         2.164870786    
HA         1.411151466        -2.248218924         2.949718264    
CB        0.2634051644        -3.978098036         2.431746554    
HB       -0.4383382263        -4.303981331         1.662156754    
HB       -0.2153570424        -4.044781646         3.409889838    
HB         1.132577236        -4.637368343         2.421792675    
C          1.453614540        -2.412757737        0.8142241190    
O          2.652462174        -2.700328822        0.7451423412    
N         0.7686147273        -1.968540961       -0.2487679805    
H        -0.2135343697        -1.757326878       -0.1266672457    
CA         1.341595086        -1.738217658        -1.581314155    
HA         2.215988619        -2.379028891        -1.707017085    
CB        0.3015999676        -2.170647692        -2.623166721    
HB        0.7255847085        -2.079774083        -3.624004397    
HB       -0.5842041178        -1.537780803        -2.555205897    
HB        0.1720124041E-01    -3.210376918        -2.455410697    
C          1.814727556       -0.2825558871        -1.811075531    
O          2.581224127       -0.3159961951E-01    -2.747343335    
N          1.390967150        0.6551302409       -0.9493845429    
H         0.7741425382        0.3420004096       -0.2153257411    
CA         1.640042029         2.103308082        -1.017315413    
HA         1.053960270         2.555089305       -0.2148713211    
CB         3.116136886         2.374234635       -0.6721017897    
HB         3.763792159         2.024606365        -1.476720081    
HB         3.381497456         1.858422709        0.2520095196    
HB         3.279105671         3.442678370       -0.5279647289    
C          1.153206481         2.796571560        -2.319551958    
O         0.5857777863         2.169594653        -3.222884843    
N          1.334990131         4.122910693        -2.398586353    
H          1.792047452         4.577364318        -1.619189663    
CH        0.9283927786         4.960298497        -3.528716970    
HH         1.201000593         6.000898843        -3.341973448    
HH       -0.1526085583         4.899686344        -3.671283731    
HH         1.424437050         4.624990075        -4.442001423    
    52
Energy=    -37.9728100101844    
HH        -5.419044976        -1.622311920        0.4451204752    
CH        -4.497440925        -2.193227046        0.3385657297    
HH        -4.465260264        -2.975275157         1.096199563    
HH        -4.459667265        -2.643302690       -0.6528345723    
C         -3.315755885        -1.269775895        0.5220753041    
O         -2.489760723        -1.132615146       -0.3792906759    
N         -3.217791637       -0.6519555456         1.699778165    
H         -3.940624587       -0.8252373016         2.383888668    
CA        -2.185419291        0.3398975460         2.030303471    
HA        -2.231800685         1.140282350         1.289541119    
CB        -2.529872552        0.9398662849         3.399896467    
HB        -2.494844576        0.1662369949         4.168804040    
HB        -1.811046353         1.721779925         3.649329205    
HB        -3.528546691         1.378439328         3.373446622    
C        -0.7437027051       -0.2187933872         2.007750937    
O         0.2105356648        0.5377863431         1.805756687    
N        -0.5746362654        -1.539891732         2.150821026    
H         -1.396276521        -2.100813708         2.326156607    
CA        0.7197232478        -2.228309819         2.084522001    
HA         1.394139059        -1.760705427         2.804285480    
CB        0.4986746375        -3.684205107         2.515222763    
HB       -0.1708041294        -4.185830603         1.814408659    
HB        0.6436402548E-01    -3.714534148         3.515666467    
HB         1.453924449        -4.210889927         2.532761896    
C          1.402867925        -2.147756199        0.6978527207    
O          2.618922957        -2.336954154        0.5994198566    
N         0.6514828054        -1.830334634       -0.3658895533    
H        -0.3453145246        -1.714725917       -0.2303207505    
CA         1.179523170        -1.599483792        -1.715589928    
HA         1.963631402        -2.333495521        -1.909992207    
CB        0.4542273085E-01    -1.854729529        -2.716966488    
HB        0.4301940445        -1.780383803        -3.734832642    
HB       -0.7455413337        -1.115670111        -2.582882494    
HB       -0.3643761678        -2.854884402        -2.569231410    
C          1.813558388       -0.1990688169        -1.912285820    
O          2.462149293        0.3497178676E-01    -2.937894998    
N          1.651621304        0.7113186239       -0.9380561351    
H          1.127034496        0.4210669398       -0.1237240751    
CA         2.081042883         2.118122382       -0.9599445571    
HA         1.687455627         2.574881874       -0.4999782045E-01
CB         3.615246989         2.175894808       -0.8374527627    
HB         4.082758449         1.817755907        -1.755196621    
HB         3.944158387         1.556227745       -0.1839055402E-02
HB         3.939943096         3.200382103       -0.6533562135    
C          1.500747133         2.963910493        -2.126466076    
O         0.7012180346         2.488890760        -2.942795963    
N          1.868246934         4.252542188        -2.178166585    
H          2.511886317         4.581662796        -1.470878506    
CH         1.413990285         5.215510971        -3.183186915    
HH         1.870847905         6.190489037        -3.002246774    
HH        0.3280632298         5.321676505        -3.137800219    
HH         1.694153490         4.875567545        -4.182454112    
