    52
Energy=    -40.6448843121877    
HH        -5.054395393       -0.8204068161        0.5311244045    
CH        -4.211869732        -1.470292043        0.2978107138    
HH        -4.279203490        -2.380052914        0.8931637205    
HH        -4.229547837        -1.724557863       -0.7613995044    
C         -2.923977971       -0.7522239298        0.6251727281    
O         -2.086462507       -0.5505019874       -0.2527345074    
N         -2.748373065       -0.3876424880         1.895652472    
H         -3.487145130       -0.5975403073         2.551998970    
CA        -1.601907150        0.3918362642         2.381342358    
HA        -1.565340356         1.329095113         1.823338041    
CB        -1.851355856        0.7278812801         3.857325166    
HB        -1.897760754       -0.1879253944         4.449019580    
HB        -1.040312187         1.353349738         4.233244726    
HB        -2.790586256         1.273303733         3.961054833    
C        -0.2382670901       -0.3106630382         2.188202063    
O         0.7877481860        0.3594591212         2.046393652    
N        -0.2205988718        -1.647856523         2.116682069    
H         -1.091515756        -2.138525692         2.264042156    
CA        0.9776918581        -2.447355653         1.834528252    
HA         1.782637276        -2.105735933         2.487914462    
CB        0.6629473993        -3.905607593         2.193016961    
HB       -0.1352397032        -4.286016541         1.553418813    
HB        0.3537906094        -3.973563571         3.237152607    
HB         1.554028949        -4.518877844         2.051506958    
C          1.485209964        -2.319170580        0.3771400195    
O          2.646174347        -2.636523859        0.1010760725    
N         0.6394685189        -1.840247729       -0.5459602984    
H        -0.3050020253        -1.622466887       -0.2512547659    
CA        0.9526118669        -1.615209757        -1.963375978    
HA         1.940738444        -2.023722775        -2.180054079    
CB       -0.6448732100E-01    -2.406266104        -2.798217250    
HB        -1.068549091        -2.011007005        -2.637064890    
HB        0.1840633711        -2.326625477        -3.857231006    
HB       -0.4114760541E-01    -3.458675795        -2.511886041    
C          1.006487412       -0.1180944301        -2.359047527    
O          1.239501053        0.2070369691        -3.528425536    
N         0.7933758261        0.7983568487        -1.406705129    
H         0.6341473079        0.4724332973       -0.4658652258    
CA        0.8049891335         2.247342508        -1.624608815    
HA        0.2647813381         2.458278953        -2.549840780    
CB        0.3390601610E-01     2.915402032       -0.4777443121    
HB       -0.3442972945E-01     3.989631792       -0.6545008743    
HB        0.5485273429         2.744385224        0.4688934837    
HB       -0.9754809732         2.505057500       -0.4206493561    
C          2.231995695         2.824285219        -1.780021076    
O          3.215441195         2.245090713        -1.301457888    
N          2.342392631         3.989079869        -2.433765369    
H          1.492211268         4.408316790        -2.787104345    
CH         3.600198672         4.699229623        -2.671947626    
HH         4.282719455         4.071127825        -3.248357094    
HH         3.412168047         5.618769065        -3.229745439    
HH         4.073002968         4.954606854        -1.721250572    
    52
Energy=    -36.5063561299492    
HH        -5.043853447        -1.331879548         1.875220054    
CH        -4.209187808        -1.945686655         1.538726017    
HH        -3.908707211        -2.620286772         2.339521857    
HH        -4.510685389        -2.525128375        0.6668210950    
C         -3.047330897        -1.050496742         1.176164175    
O         -2.584666375        -1.065597983        0.3627285094E-01
N         -2.556064359       -0.2849913624         2.151368253    
H         -2.996368743       -0.3381569867         3.059036641    
CA        -1.484309028        0.7026801305         1.966308232    
HA        -1.792915244         1.398260039         1.183690724    
CB        -1.339185499         1.492885880         3.273480458    
HB        -1.031949128        0.8281418517         4.082595292    
HB       -0.5865252790         2.272892439         3.149013725    
HB        -2.289668141         1.962016879         3.532107263    
C        -0.1342090655        0.9184055992E-01     1.525929021    
O         0.6781722483        0.7761934091        0.8984428075    
N         0.9214500783E-01    -1.202264938         1.787071904    
H        -0.6080189252        -1.703595136         2.315221329    
CA         1.291492538        -1.938969528         1.371251305    
HA         2.167962377        -1.408193536         1.747611911    
CB         1.247873289        -3.320203540         2.037583767    
HB        0.3823860670        -3.881826438         1.681932130    
HB         1.186924323        -3.208896864         3.121245623    
HB         2.155494877        -3.874163742         1.793528068    
C          1.451877844        -2.058545753       -0.1636104446    
O          2.564591851        -2.279241346       -0.6505687522    
N         0.3697663177        -1.873688695       -0.9328554422    
H        -0.5212848365        -1.724093419       -0.4755197356    
CA        0.3895100730        -1.823492176        -2.399697793    
HA         1.118768279        -2.550741192        -2.761074190    
CB       -0.9913533195        -2.261656475        -2.906243018    
HB        -1.749151075        -1.539049576        -2.600667605    
HB       -0.9811128379        -2.325109849        -3.995085395    
HB        -1.242631745        -3.242793889        -2.500840259    
C         0.8071963274       -0.4457870877        -2.974152682    
O         0.9745919184       -0.3130508310        -4.191122630    
N         0.9744076045        0.5740564702        -2.120910103    
H         0.8292793177        0.3907433724        -1.136290114    
CA         1.351573598         1.942456591        -2.484516947    
HA         1.780342587         1.939986816        -3.488068025    
CB        0.7876993752E-01     2.805620706        -2.543898923    
HB        0.3369590390         3.828674524        -2.821810768    
HB       -0.4288956115         2.805899339        -1.577903024    
HB       -0.6006337814         2.403030168        -3.296630512    
C          2.465858788         2.481762309        -1.554629791    
O          3.626903268         2.080839897        -1.693544511    
N          2.138224875         3.378864270       -0.6129016848    
H          1.166995373         3.651293826       -0.5503032109    
CH         3.073233156         3.969133044        0.3460295764    
HH         3.876932204         4.486590273       -0.1819906067    
HH         2.552891625         4.685416086        0.9848287016    
HH         3.507583338         3.188309352        0.9738333851    
    52
Energy=    -41.7229924013732    
HH        -4.832274114       -0.4612487954        0.6669493228    
CH        -4.008824410        -1.146380818        0.4693470954    
HH        -4.034275418        -1.962969272         1.189810902    
HH        -4.100510920        -1.545986159       -0.5399640491    
C         -2.701155599       -0.4034594796        0.6015088473    
O         -1.927790955       -0.3363167685       -0.3522881560    
N         -2.433905588        0.1352576859         1.791073826    
H         -3.122698397        0.2917022430E-01     2.522376767    
CA        -1.254223202        0.9628814993         2.074029819    
HA        -1.276162688         1.829190906         1.411314587    
CB        -1.366249358         1.468151687         3.518261379    
HB        -1.354302001        0.6271733628         4.213655245    
HB       -0.5258208213         2.126817845         3.742320269    
HB        -2.293665686         2.028673725         3.645138727    
C         0.8737774878E-01    0.2337730687         1.837067792    
O          1.069979222        0.8619315864         1.435112206    
N         0.1227832588        -1.092802585         2.016253433    
H        -0.7123707324        -1.544416747         2.362030450    
CA         1.299872227        -1.928573407         1.754716798    
HA         2.157168006        -1.489812441         2.268650994    
CB         1.038741257        -3.312994947         2.361785957    
HB        0.1869815965        -3.785329697         1.869514675    
HB        0.8331464230        -3.218184921         3.429093324    
HB         1.919513625        -3.943031733         2.229526883    
C          1.663564712        -2.029279387        0.2545426856    
O          2.830309848        -2.254174726       -0.8120633063E-01
N         0.6892149077        -1.835640453       -0.6450313072    
H        -0.2466181843        -1.667222469       -0.2989256789    
CA        0.8864116365        -1.792667266        -2.098173283    
HA         1.804041424        -2.324693568        -2.355030727    
CB       -0.2795540018        -2.539591823        -2.758639683    
HB        -1.222845118        -2.036631436        -2.540395577    
HB       -0.1325424613        -2.564902062        -3.839251877    
HB       -0.3225256965        -3.563844402        -2.385501851    
C          1.026209925       -0.3528206844        -2.639086806    
O          1.792281108       -0.1161291334        -3.578088824    
N         0.3187068150        0.6145183358        -2.041111156    
H        -0.3436659923        0.3423236823        -1.323985620    
CA        0.3437151972         2.025332262        -2.441876588    
HA        0.2958481861         2.077145104        -3.531173072    
CB       -0.9191669100         2.694529263        -1.884679809    
HB       -0.9649142395         3.730100010        -2.224415237    
HB       -0.9020493569         2.679332507       -0.7944957798    
HB        -1.806808012         2.168596470        -2.239506348    
C          1.622065182         2.777987164        -2.003230552    
O          2.028329929         3.739792355        -2.664811236    
N          2.268335125         2.347924226       -0.9095925626    
H          1.849173824         1.586146757       -0.3887134509    
CH         3.501188627         2.929420265       -0.3788653413    
HH         3.349916807         3.986270828       -0.1496602283    
HH         3.794506536         2.409420854        0.5351681425    
HH         4.305537006         2.837243304        -1.111548997    
