    52
Energy=    -37.0734907445094    
HH        -4.184852421        0.8188279501         5.487295027    
CH        -3.508057744         1.119237634         4.688288296    
HH        -4.069513505         1.236304366         3.762173424    
HH        -3.033226705         2.064456853         4.948943068    
C         -2.452186454        0.5328081024E-01     4.502341570    
O         -1.261840157        0.3292609600         4.647451433    
N         -2.888844007        -1.162729592         4.174036715    
H         -3.886617545        -1.298460448         4.094321162    
CA        -2.021715840        -2.333010284         3.982042100    
HA        -1.219559320        -2.291667454         4.721037873    
CB        -2.857349965        -3.587391486         4.272434880    
HB        -2.224509079        -4.473792257         4.210858970    
HB        -3.279556272        -3.528578969         5.276736005    
HB        -3.665597692        -3.676414676         3.544801655    
C         -1.345090458        -2.404191250         2.590894870    
O        -0.4423879911        -3.222320275         2.383501387    
N         -1.766372475        -1.566977877         1.634883282    
H         -2.501103439       -0.9175312896         1.871458752    
CA        -1.221430329        -1.513927639        0.2745757814    
HA        -1.140575494        -2.536429940       -0.1002451051    
CB        -2.221746465       -0.7689381965       -0.6205880812    
HB        -3.195156277        -1.260284848       -0.5784944790    
HB        -2.325298922        0.2652004537       -0.2873714499    
HB        -1.872077218       -0.7762491660        -1.653940012    
C         0.1884421806       -0.8828169858        0.2092310906    
O         0.5728632370       -0.7595702011E-01     1.062878128    
N         0.9501249449        -1.220830599       -0.8382801692    
H         0.5815496776        -1.891704958        -1.498754773    
CA         2.319661831       -0.7344407017        -1.054127543    
HA         2.855356297       -0.7797246001       -0.1040800176    
CB         3.010686090        -1.698195516        -2.028100137    
HB         2.508614585        -1.678799923        -2.996792088    
HB         4.052017877        -1.401494886        -2.161792776    
HB         2.985249413        -2.712873115        -1.627766886    
C          2.402643197        0.7286517824        -1.551926376    
O          3.461827776         1.353572612        -1.442082711    
N          1.300881025         1.275867753        -2.088587312    
H         0.4776900087        0.6930659836        -2.136063808    
CA         1.171321539         2.650797285        -2.598023622    
HA        0.2186224470         2.685830377        -3.129234635    
CB         1.036878411         3.618369228        -1.409768823    
HB        0.7836524234         4.615658774        -1.771429671    
HB        0.2448021182         3.277925137       -0.7414692142    
HB         1.976107435         3.667878152       -0.8578079660    
C          2.227812678         3.063709860        -3.658704068    
O          2.614617846         4.235228724        -3.749312769    
N          2.702717945         2.103499439        -4.466590905    
H          2.337117573         1.170110350        -4.337184288    
CH         3.707521675         2.303873009        -5.512033205    
HH         3.911732455         1.360423942        -6.022114964    
HH         4.636051508         2.674922298        -5.073086583    
HH         3.348101883         3.029780019        -6.244431032    
    52
Energy=    -33.4020888997107    
HH        -4.477697467        0.8694970650         5.233900111    
CH        -3.741099184         1.149257989         4.481659253    
HH        -4.226745878         1.226855886         3.509676005    
HH        -3.297220422         2.108595196         4.745266434    
C         -2.664350781        0.8975765672E-01     4.420211096    
O         -1.492121111        0.3845678903         4.650669042    
N         -3.062338342        -1.142126753         4.102099395    
H         -4.049151202        -1.292173976         3.947131082    
CA        -2.172408948        -2.308393380         4.023432333    
HA        -1.432927595        -2.231260943         4.822492102    
CB        -3.017839520        -3.561164400         4.291601280    
HB        -2.374423958        -4.441795784         4.313734211    
HB        -3.520284702        -3.471214713         5.255860327    
HB        -3.763867346        -3.685659413         3.505101449    
C         -1.385005458        -2.421573961         2.694748510    
O        -0.4623982165        -3.237115457         2.590318640    
N         -1.733893992        -1.623082934         1.678347960    
H         -2.490177277       -0.9733304046         1.831436885    
CA        -1.081412319        -1.612740889        0.3651813757    
HA       -0.9631899000        -2.647050098        0.3536237170E-01
CB        -2.011767386       -0.9103452617       -0.6338459282    
HB        -2.981685486        -1.409990198       -0.6523798837    
HB        -2.149672473        0.1337975188       -0.3475981896    
HB        -1.579830823       -0.9506490938        -1.634820664    
C         0.3246383495       -0.9701767707        0.3905094541    
O         0.6332786636       -0.1299584873         1.242741177    
N          1.170553557        -1.337396605       -0.5796484204    
H         0.8609879679        -2.034736146        -1.242967386    
CA         2.551520545       -0.8495613546       -0.7000188926    
HA         3.005811305       -0.8547428282        0.2925626727    
CB         3.324907439        -1.846752200        -1.573036985    
HB         2.907540142        -1.866311601        -2.581101673    
HB         4.373207972        -1.549954918        -1.628668059    
HB         3.267041325        -2.845473023        -1.137580244    
C          2.673858968        0.5943576170        -1.246583183    
O          3.717328332         1.224798392        -1.056661388    
N          1.612877886         1.109226219        -1.888278319    
H         0.8106850961        0.5016093380        -1.963744698    
CA         1.493139789         2.414403438        -2.558738829    
HA        0.5093962405         2.417856191        -3.032211730    
CB         1.445634888         3.537721405        -1.511043182    
HB         1.232546422         4.487477280        -2.003300481    
HB        0.6596966251         3.333659373       -0.7825897350    
HB         2.402809672         3.615462876       -0.9945680571    
C          2.516246713         2.669839286        -3.696312886    
O          3.718339299         2.847375072        -3.469655232    
N          2.021936319         2.736023664        -4.941209227    
H          1.026948449         2.596004281        -5.058367248    
CH         2.815250397         2.990249248        -6.145501250    
HH         2.171275336         2.984995565        -7.027170125    
HH         3.578433845         2.217948660        -6.262649288    
HH         3.305618546         3.963394287        -6.073791982    
    52
Energy=    -35.7466159180960    
HH        -4.552544246        0.9812417321         5.100610554    
CH        -3.834766805         1.225378309         4.318368706    
HH        -4.329169429         1.189501039         3.348366082    
HH        -3.436658040         2.225148016         4.488114367    
C         -2.708043599        0.2176277510         4.343629253    
O         -1.550269805        0.5883770029         4.534033727    
N         -3.047357414        -1.056040983         4.144220952    
H         -4.026558846        -1.266936859         4.013774971    
CA        -2.102121466        -2.180532149         4.163968682    
HA        -1.362681342        -1.994586087         4.944948939    
CB        -2.883936309        -3.442335535         4.554758909    
HB        -2.198251585        -4.285266769         4.651134966    
HB        -3.384600857        -3.288006898         5.511761896    
HB        -3.627530940        -3.674538712         3.790699159    
C         -1.317817721        -2.377921853         2.843317911    
O        -0.3571532624        -3.154364886         2.804846593    
N         -1.711090147        -1.694315523         1.761474695    
H         -2.497263808        -1.070291301         1.861928604    
CA        -1.067349683        -1.773700343        0.4463661837    
HA       -0.9011535545        -2.827132137        0.2113957171    
CB        -2.036143779        -1.211075523       -0.6033079676    
HB        -2.980843073        -1.755963398       -0.5664684583    
HB        -2.222743413       -0.1528336723       -0.4123041787    
HB        -1.608270649        -1.322355512        -1.600647852    
C         0.3060813724        -1.065249211        0.3985479295    
O         0.5786975558       -0.1367017107         1.167400782    
N          1.163087403        -1.479154057       -0.5425224343    
H         0.8834598008        -2.247110639        -1.137455821    
CA         2.516067584       -0.9356027590       -0.7240798128    
HA         2.977484713       -0.8250535598        0.2589851155    
CB         3.333768842        -1.968218660        -1.510997578    
HB         2.910718163        -2.101270684        -2.508008258    
HB         4.364631277        -1.624313788        -1.606277508    
HB         3.330998017        -2.924268880       -0.9853564119    
C          2.558219018        0.4552982909        -1.403146858    
O          3.570259175         1.155757651        -1.292363412    
N          1.467068857        0.8599323279        -2.072630859    
H         0.6897144009        0.2174653357        -2.096133344    
CA         1.317524381         2.101026804        -2.850100448    
HA        0.3463280281         2.044609117        -3.345197371    
CB         1.232199398         3.290665429        -1.875443867    
HB        0.9244551417         4.191847405        -2.406546812    
HB        0.4949124132         3.081574949        -1.098825070    
HB         2.201889485         3.469424068        -1.409745131    
C          2.350842595         2.285105092        -3.995691826    
O          3.176776204         1.407106536        -4.275821552    
N          2.271804827         3.420503085        -4.704950143    
H          1.562776484         4.089196092        -4.434899057    
CH         3.137250242         3.767639494        -5.833833421    
HH         2.867763169         4.750749268        -6.224884997    
HH         3.028473948         3.029631632        -6.631388868    
HH         4.181067577         3.790335459        -5.513625375    
