    52
Energy=    -34.8639237118519    
HH        -4.434343875        0.8277671747         4.097679658    
CH        -4.889314275       -0.1184713764         4.387947859    
HH        -5.905095686       -0.1674391023         3.997444040    
HH        -4.912405383       -0.1941032996         5.474500762    
C         -4.079883796        -1.259559621         3.815369257    
O         -3.565938309        -2.090890963         4.563135649    
N         -3.958542382        -1.294111357         2.488167122    
H         -4.429391316       -0.5778086093         1.953598173    
CA        -3.251606179        -2.348521426         1.749399055    
HA        -3.515363511        -3.312088862         2.189173848    
CB        -3.768805247        -2.334757796        0.3041720111    
HB        -3.311539970        -3.150172902       -0.2582064348    
HB        -3.518062090        -1.387600941       -0.1762562026    
HB        -4.851571894        -2.468804424        0.2957081464    
C         -1.708934215        -2.236794118         1.798380191    
O         -1.014575804        -3.202480946         1.467075045    
N         -1.171056630        -1.074826104         2.200881264    
H         -1.814275908       -0.3431139510         2.468449087    
CA        0.2655990130       -0.7690206050         2.300324179    
HA        0.3343073259        0.3082890308         2.461064733    
CB        0.8375954918        -1.431360038         3.565409325    
HB        0.8406303394        -2.516133975         3.453183707    
HB        0.2319330417        -1.161662235         4.431638242    
HB         1.859193348        -1.088242878         3.733460084    
C          1.079059621        -1.028980308         1.004380263    
O          2.266596141        -1.366740254         1.052993289    
N         0.4422816831       -0.8738589096       -0.1642449427    
H        -0.5289037606       -0.5981702032       -0.1366619741    
CA         1.024905312        -1.179858126        -1.477283421    
HA         1.590908561        -2.109405116        -1.393414254    
CB       -0.1331117034        -1.425990369        -2.453574181    
HB       -0.7204228614       -0.5146503739        -2.576869411    
HB        0.2630875283        -1.726602849        -3.424460202    
HB       -0.7755337817        -2.222909428        -2.075673703    
C          2.001308698       -0.1039996266        -2.011978491    
O          2.785929830       -0.3933549574        -2.921857994    
N          1.972728633         1.110096054        -1.439823584    
H          1.303141926         1.241565993       -0.6966867273    
CA         2.749049208         2.294487674        -1.842472446    
HA         2.390909460         3.125239290        -1.231659838    
CB         4.223173643         2.080081265        -1.450623721    
HB         4.780055015         3.011787075        -1.554156040    
HB         4.287112761         1.755998439       -0.4107737650    
HB         4.679289248         1.323697460        -2.090116680    
C          2.537754762         2.747395549        -3.313609205    
O          1.715158174         2.194082439        -4.054347942    
N          3.251656843         3.803645286        -3.729681639    
H          3.893840431         4.220402813        -3.068833028    
CH         3.177048007         4.393454824        -5.067755790    
HH         2.164108609         4.750810771        -5.264814057    
HH         3.868527748         5.234740695        -5.146140470    
HH         3.441788479         3.648944015        -5.821558849    
    52
Energy=    -34.0993820212143    
HH        -5.275843079        0.5302929109         3.606291720    
CH        -4.895051988       -0.1217051972         4.391748354    
HH        -5.733718388       -0.5337138685         4.951288208    
HH        -4.253599514        0.4555604162         5.056220895    
C         -4.093478966        -1.259318366         3.798085881    
O         -3.582853696        -2.097309118         4.540340323    
N         -3.970616590        -1.289822795         2.470084005    
H         -4.436950636       -0.5710148101         1.935253884    
CA        -3.265119604        -2.344191943         1.729636331    
HA        -3.533113580        -3.308404973         2.165431396    
CB        -3.778321148        -2.324047443        0.2830372529    
HB        -3.322188638        -3.139157917       -0.2807083395    
HB        -3.523126852        -1.376212432       -0.1937042877    
HB        -4.861491947        -2.454552611        0.2711464645    
C         -1.722202502        -2.237484843         1.783104676    
O         -1.029982797        -3.204093069         1.450020011    
N         -1.181769715        -1.078695624         2.191359169    
H         -1.823407304       -0.3459573614         2.460042305    
CA        0.2555580873       -0.7778334242         2.295967657    
HA        0.3272201005        0.2986623721         2.460815291    
CB        0.8218379656        -1.446570446         3.560258067    
HB        0.8217314119        -2.530935506         3.444105601    
HB        0.2145749370        -1.178074084         4.425739551    
HB         1.844042228        -1.107332717         3.732446942    
C          1.071876912        -1.035680830         1.001401739    
O          2.258147487        -1.377550634         1.052153798    
N         0.4389695911       -0.8741267567       -0.1684531706    
H        -0.5313712919       -0.5953122532       -0.1426212831    
CA         1.024352556        -1.177188776        -1.480946833    
HA         1.587025212        -2.108919035        -1.398913288    
CB       -0.1316560544        -1.415842361        -2.461465125    
HB       -0.7155829469       -0.5021017251        -2.583055184    
HB        0.2663406857        -1.714167329        -3.432321637    
HB       -0.7778035703        -2.212016684        -2.088377050    
C          2.005856329       -0.1026099330        -2.008834033    
O          2.792136397       -0.3912001633        -2.917523684    
N          1.979650819         1.109445720        -1.432257399    
H          1.308361374         1.240387825       -0.6905646863    
CA         2.761055951         2.292731400        -1.828268253    
HA         2.403910589         3.122401027        -1.215406229    
CB         4.233322723         2.071969809        -1.432979363    
HB         4.793588556         3.002194451        -1.531446795    
HB         4.293181639         1.743824831       -0.3941609960    
HB         4.688772479         1.316447193        -2.073963180    
C          2.555516734         2.751788666        -3.298313956    
O          1.733232251         2.203965729        -4.043466773    
N          3.274118932         3.807190575        -3.708403837    
H          3.915769707         4.219356344        -3.044166573    
CH         3.205334294         4.402199378        -5.044486710    
HH         2.194159547         4.763651819        -5.243130154    
HH         3.899824377         5.241464277        -5.117755162    
HH         3.469781235         3.659610085        -5.800285538    
    52
Energy=    -34.8639237118485    
HH        -5.919708784       -0.1590531950         3.976115725    
CH        -4.904950806       -0.1203160182         4.370410821    
HH        -4.932268701       -0.2046386699         5.456225734    
HH        -4.442467362        0.8250784156         4.089413461    
C         -4.101474764        -1.262286536         3.791242516    
O         -3.595837860        -2.103229409         4.533908487    
N         -3.975849417        -1.286861036         2.464216732    
H         -4.439912790       -0.5629766876         1.933944219    
CA        -3.273699139        -2.340093045         1.719230174    
HA        -3.545604953        -3.305360037         2.150227695    
CB        -3.785859454        -2.310964426        0.2724375617    
HB        -3.332323281        -3.124921150       -0.2950500909    
HB        -3.526942016        -1.361685554       -0.1993896245    
HB        -4.869491158        -2.437424249        0.2592472668    
C         -1.730468129        -2.239471245         1.774296009    
O         -1.041671886        -3.207218478         1.437438800    
N         -1.185951714        -1.084581075         2.188082967    
H         -1.825009338       -0.3506303084         2.459464391    
CA        0.2524348316       -0.7895681239         2.294838968    
HA        0.3280354453        0.2858931275         2.464609572    
CB        0.8155252672        -1.466148155         3.556378727    
HB        0.8114487230        -2.549966308         3.435300712    
HB        0.2087904640        -1.199325274         4.422747515    
HB         1.838890185        -1.131506081         3.730653080    
C          1.068494027        -1.044592343        0.9995483140    
O          2.253496071        -1.390966277         1.049380479    
N         0.4367912431       -0.8755377566       -0.1698984821    
H        -0.5325547714       -0.5933532188       -0.1433195780    
CA         1.021760540        -1.174858300        -1.483433402    
HA         1.581039013        -2.108961658        -1.405268015    
CB       -0.1345937693        -1.404986365        -2.465581009    
HB       -0.7151707950       -0.4886197593        -2.583391268    
HB        0.2628272030        -1.700416346        -3.437557889    
HB       -0.7837910796        -2.200483849        -2.096363598    
C          2.007390925       -0.1014758361        -2.006039119    
O          2.793092342       -0.3888407362        -2.915617171    
N          1.985248486         1.108085040        -1.424078137    
H          1.314055881         1.238134721       -0.6821410388    
CA         2.771101696         2.290305939        -1.814426344    
HA         2.416629181         3.118515460        -1.198047730    
CB         4.242364915         2.062492856        -1.419402150    
HB         4.806019727         2.991126445        -1.513446979    
HB         4.300517292         1.729509426       -0.3820275024    
HB         4.695421938         1.308200998        -2.063523469    
C          2.567959102         2.756644654        -3.282512008    
O          1.744090661         2.215106334        -4.030503623    
N          3.290555599         3.811273896        -3.687539692    
H          3.933345467         4.218166966        -3.021156396    
CH         3.224586598         4.412473807        -5.020990461    
HH         2.214817871         4.778440759        -5.218517063    
HH         3.922124643         5.249554659        -5.090175923    
HH         3.486746930         3.672313805        -5.779962164    
