    52
Energy=    -36.7091838691030    
HH        -5.560352172        0.6319269227        0.6789915849    
CH        -4.670314525        0.3568678245        0.1144525553    
HH        -4.866328945       -0.5522923090       -0.4526186671    
HH        -4.407155457         1.163349072       -0.5689585118    
C         -3.527803790        0.1102488805         1.072935547    
O         -2.499430351        0.7831182768        0.9981000707    
N         -3.698840969       -0.8591850596         1.970980899    
H         -4.568622926        -1.371048781         1.961184924    
CA        -2.681616491        -1.244233510         2.952247204    
HA        -2.370542082       -0.3454113629         3.488631628    
CB        -3.310195409        -2.200634896         3.974344517    
HB        -3.649123284        -3.111380094         3.477894791    
HB        -2.571614690        -2.463242975         4.733145967    
HB        -4.158852582        -1.718136304         4.461462911    
C         -1.434838355        -1.855743191         2.276155469    
O         -1.548859311        -2.741367793         1.421771372    
N        -0.2450533759        -1.379944451         2.667792445    
H        -0.2450623703       -0.6727167033         3.390310217    
CA         1.067395290        -1.770431615         2.128178518    
HA         1.781655542        -1.048859591         2.528532839    
CB         1.465346726        -3.137747310         2.710192673    
HB        0.8191434745        -3.919445307         2.309312967    
HB         1.375377088        -3.119287007         3.797155817    
HB         2.500152804        -3.364425009         2.450517078    
C          1.218251081        -1.657771781        0.5860428314    
O          2.069783669        -2.324262872       -0.1169314230E-01
N         0.4101782345       -0.8130088362       -0.7073666516E-01
H        -0.2791373254       -0.3020670157        0.4640092656    
CA        0.3869033275       -0.6592818068        -1.531996314    
HA        0.5036161306        -1.646203608        -1.983533392    
CB       -0.9974065601       -0.1297238351        -1.929285607    
HB        -1.150659691        0.8683051226        -1.516149125    
HB        -1.073587784       -0.7893644005E-01    -3.016290818    
HB        -1.772991585       -0.7997910691        -1.555418143    
C          1.519966537        0.2302328370        -2.097021619    
O          1.788327416        0.1882087525        -3.301539172    
N          2.184104987         1.025202137        -1.243803437    
H          1.902451001        0.9922438061       -0.2745668747    
CA         3.292036056         1.932996871        -1.583559398    
HA         3.453752213         2.553302904       -0.7003268716    
CB         4.578587288         1.111322143        -1.773400573    
HB         5.434293748         1.780690150        -1.869509874    
HB         4.736976844        0.4643883391       -0.9095438027    
HB         4.503635486        0.4985167082        -2.672349287    
C          2.990102805         2.943619577        -2.723430095    
O          3.887082103         3.337963323        -3.478557566    
N          1.724011588         3.367354034        -2.856539188    
H          1.045776630         3.005580881        -2.200251148    
CH         1.253057111         4.305155954        -3.877032767    
HH         1.434466993         3.896787933        -4.873446488    
HH        0.1822071519         4.481950250        -3.758708314    
HH         1.779751003         5.257247634        -3.784077231    
    52
Energy=    -31.8875093200637    
HH        -5.814485173        0.2951625175         1.440220640    
CH        -4.987532275        0.1405242046        0.7482943949    
HH        -5.201510089       -0.7176326794        0.1124165227    
HH        -4.856642043         1.028374534        0.1307933892    
C         -3.722846752       -0.1232896937         1.533089974    
O         -2.750933446        0.6228178746         1.412065173    
N         -3.726821444        -1.188405614         2.333730534    
H         -4.561152478        -1.755127097         2.370145019    
CA        -2.575872310        -1.600679243         3.140738099    
HA        -2.249418362       -0.7409878351         3.729569320    
CB        -3.019559892        -2.693825255         4.121883456    
HB        -3.367573069        -3.571332573         3.574470309    
HB        -2.179204383        -2.980563261         4.755786172    
HB        -3.826020247        -2.320026302         4.754503225    
C         -1.391400446        -2.057418033         2.260973321    
O         -1.564315195        -2.850575433         1.329137077    
N        -0.1873316563        -1.555542335         2.567065504    
H        -0.1345919750       -0.9321795930         3.361331051    
CA         1.068766285        -1.807361887         1.842537607    
HA         1.790732007        -1.090968706         2.238395446    
CB         1.596833397        -3.202444173         2.218631143    
HB        0.9451442438        -3.974382506         1.807839032    
HB         1.635630066        -3.304889010         3.303953124    
HB         2.603057655        -3.337977682         1.820154474    
C          1.030343407        -1.522789221        0.3157824600    
O          1.834045081        -2.071519361       -0.4454461631    
N         0.1133953413       -0.6603195045       -0.1461595880    
H        -0.5316061045       -0.2516985286        0.5164778340    
CA       -0.8591698358E-01   -0.3488443112        -1.568797336    
HA        0.3807392389E-03    -1.276277363        -2.137992394    
CB        -1.520296323        0.1681223765        -1.741909372    
HB        -1.648222186         1.107851388        -1.202614750    
HB        -1.725494483        0.3357721494        -2.800039429    
HB        -2.229368647       -0.5681647086        -1.360707103    
C         0.9517989680        0.6380709417        -2.157976415    
O          1.069473062        0.7258839342        -3.382812987    
N          1.676157924         1.364453786        -1.290516880    
H          1.449348161         1.216327472       -0.3186540584    
CA         2.789051115         2.300569556        -1.533172911    
HA         2.488208645         3.272931465        -1.138545814    
CB         3.978612792         1.821909777       -0.6855697576    
HB         4.813659621         2.514570290       -0.7999785400    
HB         3.696305133         1.785805379        0.3675846342    
HB         4.293082474        0.8271710410        -1.005608065    
C          3.199706324         2.522703215        -3.012457120    
O          3.982099514         1.753508676        -3.586352783    
N          2.693367048         3.605034495        -3.620905596    
H          2.061502192         4.187879582        -3.087992746    
CH         2.971185678         3.992963167        -5.004741782    
HH         2.652325389         3.201755139        -5.686581601    
HH         2.432778176         4.909756111        -5.252934720    
HH         4.041125823         4.165302638        -5.139101022    
    52
Energy=    -37.8121138206602    
HH        -5.685504515        0.2716522428         2.278855191    
CH        -4.986561497        0.1744639160         1.449061499    
HH        -5.323636036       -0.6170453845        0.7808894603    
HH        -4.934648902         1.115468588        0.9026866411    
C         -3.618377389       -0.1764081152         1.987424930    
O         -2.659617706        0.5666388836         1.776267060    
N         -3.520080097        -1.312116982         2.677373249    
H         -4.352069326        -1.870261584         2.799353006    
CA        -2.263860372        -1.812050656         3.241107505    
HA        -1.822372337        -1.016201173         3.844486399    
CB        -2.569585460        -2.989000108         4.176952833    
HB        -3.026383511        -3.806150465         3.616249330    
HB        -1.644487399        -3.344481941         4.633095905    
HB        -3.250718416        -2.668357122         4.966605197    
C         -1.253175345        -2.195513757         2.137980906    
O         -1.595564981        -2.904197756         1.185156543    
N        -0.5869616176E-02    -1.726021962         2.276399342    
H         0.1919290155        -1.174196203         3.100130163    
CA         1.103374071        -1.915446895         1.327885937    
HA         1.894559864        -1.238166138         1.654130716    
CB         1.663948923        -3.339347895         1.485422605    
HB        0.9384202706        -4.070675834         1.127532811    
HB         1.886092482        -3.537201638         2.534905925    
HB         2.584670524        -3.441208522        0.9096554363    
C         0.8082254768        -1.496929924       -0.1389735299    
O          1.453338902        -1.985304790        -1.072724706    
N        -0.1550628453       -0.5900659524       -0.3570781587    
H        -0.6636185036       -0.2361416743        0.4416710355    
CA       -0.5877377375       -0.1425838395        -1.688493414    
HA       -0.5281810906       -0.9898969608        -2.373935926    
CB        -2.063212107        0.2680347106        -1.592331947    
HB        -2.168375019         1.138300978       -0.9430446313    
HB        -2.440199808        0.5191699419        -2.584602071    
HB        -2.654032884       -0.5570752114        -1.191787406    
C         0.2822623884        0.9851362249        -2.294815396    
O         0.1773217841         1.270360735        -3.492567944    
N          1.136896353         1.630059611        -1.491028051    
H          1.177781459         1.346927084       -0.5240527346    
CA         2.034369456         2.706291892        -1.923050906    
HA         1.463217208         3.397294509        -2.546500135    
CB         2.498993370         3.479393384       -0.6811049148    
HB         3.119800731         4.324245587       -0.9826104599    
HB         1.634337329         3.858113635       -0.1338866733    
HB         3.081329818         2.826041166       -0.2930404627E-01
C          3.227789862         2.198421194        -2.766440968    
O          3.659445853         1.045656127        -2.639736944    
N          3.784063420         3.076327971        -3.612754828    
H          3.383979005         4.004674014        -3.651696099    
CH         4.926896997         2.791880901        -4.482373708    
HH         4.687254407         1.970343622        -5.160792804    
HH         5.177456283         3.674878524        -5.073634684    
HH         5.795177949         2.512272840        -3.881956540    
