    52
Energy=    -35.9139105452166    
HH        -5.411479499         2.448394096         3.741114065    
CH        -4.475700347         2.535802903         3.190444840    
HH        -4.687442602         2.610463520         2.124545972    
HH        -3.940443871         3.425735442         3.519337316    
C         -3.629374179         1.308562984         3.446027848    
O         -2.514292202         1.421503523         3.955932112    
N         -4.160536835        0.1383097323         3.095213899    
H         -5.078416152        0.1441452256         2.676341455    
CA        -3.481554207        -1.153738111         3.234036906    
HA        -2.974864401        -1.171144918         4.201116908    
CB        -4.542542420        -2.262960843         3.247984317    
HB        -5.071986029        -2.286338776         2.294110691    
HB        -4.064943384        -3.229867784         3.412286174    
HB        -5.256849823        -2.083755037         4.053008704    
C         -2.410293882        -1.394422789         2.144500005    
O         -2.498456325       -0.8515643569         1.036171438    
N         -1.432762851        -2.257824726         2.457229602    
H         -1.468265461        -2.670530110         3.378474898    
CA       -0.2738602606        -2.619347572         1.623677408    
HA        0.3626470546        -3.259785591         2.237142981    
CB       -0.7560725095        -3.493660498        0.4509473992    
HB        -1.324615513        -2.893556549       -0.2602576869    
HB        -1.387918895        -4.300672546        0.8249427171    
HB        0.9647499541E-01    -3.936536419       -0.6474004127E-01
C         0.6305987965        -1.430721683         1.199012766    
O         0.4097908415       -0.2734665000         1.575100796    
N          1.696219076        -1.725546364        0.4451448389    
H          1.835294902        -2.688099094        0.1750199911    
CA         2.652161212       -0.7355130618       -0.6192014973E-01
HA         2.915720902       -0.6284841003E-01    0.7569193223    
CB         3.931415022        -1.467330794       -0.4902969237    
HB         3.714636168        -2.149629520        -1.313878548    
HB         4.679248653       -0.7435197389       -0.8174031347    
HB         4.335563027        -2.032904689        0.3506729526    
C          2.073769136        0.1286599402        -1.206357925    
O          1.172140135       -0.2959460696        -1.939353451    
N          2.617365447         1.338209651        -1.379111119    
H          3.364103538         1.617548793       -0.7597577605    
CA         2.233575979         2.272379404        -2.442547629    
HA         1.143225843         2.305470844        -2.491670806    
CB         2.722723036         3.675504308        -2.057780013    
HB         2.395151644         4.399210021        -2.805440928    
HB         2.308687476         3.960892012        -1.089485652    
HB         3.812495351         3.690307945        -2.003219010    
C          2.748328822         1.843330112        -3.837158139    
O          3.751801264         1.129210100        -3.959334235    
N          2.071862819         2.305657630        -4.897785274    
H          1.268814795         2.894239334        -4.718638830    
CH         2.409843212         2.023572270        -6.293993229    
HH         2.377508972        0.9476416610        -6.478199835    
HH         1.697917695         2.516101093        -6.959301079    
HH         3.413586135         2.390379806        -6.518826924    
    52
Energy=    -31.7176213742423    
HH        -5.017119776         2.562009696         3.674597218    
CH        -3.949188473         2.500842276         3.880356821    
HH        -3.403432638         3.090024004         3.144445653    
HH        -3.747193421         2.886320681         4.878984998    
C         -3.505568216         1.057698166         3.791978575    
O         -3.001144050        0.5042832063         4.769666746    
N         -3.694678407        0.4490891627         2.622047409    
H         -4.107944021        0.9843815235         1.873220627    
CA        -3.306130871       -0.9362962261         2.339252359    
HA        -3.627065374        -1.556435670         3.178817083    
CB        -4.067860475        -1.411994395         1.094150395    
HB        -3.774104138       -0.8191061250        0.2263575694    
HB        -3.841560925        -2.461393642        0.8998954668    
HB        -5.142265716        -1.309398084         1.254173174    
C         -1.777726337        -1.118520026         2.182923016    
O         -1.067567716       -0.1757099643         1.820284696    
N         -1.307022514        -2.348419011         2.442466410    
H         -2.000292852        -3.021305515         2.737486524    
CA        0.6254238585E-01    -2.885056809         2.331181614    
HA        0.3364881831        -3.251828758         3.322009656    
CB        0.1956184495E-01    -4.113506180         1.407466977    
HB       -0.3264834343        -3.832105850        0.4117432492    
HB       -0.6601743862        -4.861313069         1.818624707    
HB         1.015585829        -4.552702298         1.331656410    
C          1.183685615        -1.892393454         1.933176862    
O          1.948687232        -1.446757648         2.795493056    
N          1.290999596        -1.558582243        0.6409528957    
H         0.6149137512        -1.949245737        0.8025054088E-03
CA         2.251902293       -0.6007918504        0.8482848865E-01
HA         2.536258691        0.1117247390        0.8616200329    
CB         3.510363218        -1.365417463       -0.3522317425    
HB         3.258455653        -2.084288040        -1.133512261    
HB         4.253673916       -0.6664774625       -0.7380880787    
HB         3.937703383        -1.896046728        0.4997116611    
C          1.650431264        0.2087300357        -1.085322021    
O         0.7072618357       -0.2355219850        -1.751257499    
N          2.213878261         1.391544842        -1.352789975    
H          2.993450139         1.687369837       -0.7834520623    
CA         1.806671775         2.270335839        -2.454114955    
HA        0.7162069252         2.327220346        -2.461089666    
CB         2.342323223         3.681307770        -2.174372581    
HB         1.999881552         4.367389304        -2.950307566    
HB         1.975508120         4.033475188        -1.209030919    
HB         3.433482957         3.672546227        -2.164836385    
C          2.253043803         1.747099766        -3.840102473    
O          3.234748693         1.002945594        -3.959673561    
N          1.542915568         2.162051938        -4.898320002    
H         0.7610754906         2.779469860        -4.722490322    
CH         1.815843921         1.789698925        -6.287590176    
HH         1.752462736        0.7058456738        -6.405273666    
HH         1.087511813         2.259039017        -6.951900595    
HH         2.817004374         2.118170415        -6.574616348    
    52
Energy=    -38.7747288291103    
HH        -5.833570155         1.872990492         3.200441388    
CH        -5.036326917         1.657332158         3.910695764    
HH        -4.338224562         2.493092203         3.937502979    
HH        -5.461817054         1.505292119         4.901911567    
C         -4.302982693        0.4087946115         3.474120793    
O         -4.258396170       -0.5738292111         4.215050856    
N         -3.729926542        0.4465343117         2.271964423    
H         -3.811649867         1.298254536         1.737114471    
CA        -2.959521439       -0.6562914825         1.688990060    
HA        -3.519482774        -1.581155015         1.842164986    
CB        -2.847423292       -0.4265560277        0.1752872579    
HB        -2.286582835        0.4880855706       -0.2418875054E-01
HB        -2.331997547        -1.267457024       -0.2907418513    
HB        -3.843303724       -0.3411757098       -0.2621540163    
C         -1.572660053       -0.8394083432         2.347221353    
O        -0.9888218151        0.1040450809         2.892884461    
N         -1.021490402        -2.055980455         2.258987824    
H         -1.551320686        -2.786995810         1.804400209    
CA        0.2809387086        -2.418238035         2.835561943    
HA        0.3440206351        -1.991711333         3.838360149    
CB        0.3236151305        -3.946113270         2.972885324    
HB        0.2738124520        -4.413264761         1.987955568    
HB       -0.5162043157        -4.288837513         3.579218300    
HB         1.252181965        -4.245327639         3.461085380    
C          1.497667559        -1.884922249         2.040178554    
O          2.616356840        -1.864213038         2.564077740    
N          1.291062271        -1.449736488        0.7912791879    
H         0.3477501751        -1.492666691        0.4343254936    
CA         2.307630617       -0.8751161731       -0.9653112261E-01
HA         3.105542488       -0.4374008549        0.5066327104    
CB         2.908972381        -2.005712135       -0.9450208430    
HB         2.134970415        -2.459208306        -1.566260069    
HB         3.695172166        -1.609334374        -1.588978893    
HB         3.340483074        -2.768552498       -0.2954502001    
C          1.729998554        0.2499830627       -0.9839970066    
O         0.5157560255        0.3268288798        -1.205765329    
N          2.603873864         1.115868345        -1.507712765    
H          3.583931219        0.9871752343        -1.301657197    
CA         2.238635643         2.214988872        -2.407580793    
HA         1.364776530         2.721216960        -1.992198500    
CB         3.392076186         3.227334374        -2.432564093    
HB         3.118046825         4.084895905        -3.048640304    
HB         3.602242288         3.576336215        -1.420399212    
HB         4.288246744         2.763730707        -2.848185802    
C          1.863298647         1.731742391        -3.828693228    
O          2.307762916        0.6701686549        -4.283987862    
N          1.060940747         2.531454074        -4.544914430    
H         0.7478761078         3.389267687        -4.109567525    
CH        0.6060848594         2.256227748        -5.908933565    
HH        0.4569641144E-01     1.319301883        -5.936042041    
HH       -0.4054681979E-01     3.063344881        -6.258909379    
HH         1.462829520         2.174917279        -6.581223960    
