    52
Energy=    -37.4423629978526    
HH        -1.384557992       -0.7612212592         6.940147793    
CH       -0.4766022238       -0.9643858522         6.373646405    
HH       -0.1077866723       -0.3811611200E-01     5.934802763    
HH        0.2810424781        -1.381366405         7.036056984    
C        -0.7873437517        -1.950775936         5.270070739    
O        -0.2041676402        -3.034479766         5.229063025    
N         -1.703225371        -1.571129178         4.379976721    
H         -2.115101410       -0.6559654265         4.494946816    
CA        -2.146450074        -2.362731744         3.226304833    
HA        -1.356375752        -3.064039185         2.950582663    
CB        -3.385110885        -3.173947360         3.636148560    
HB        -3.710223771        -3.801532620         2.805233070    
HB        -3.144726442        -3.815072190         4.485434486    
HB        -4.198031589        -2.500939458         3.913498674    
C         -2.432697330        -1.482822416         1.989279512    
O         -2.703184531       -0.2831928975         2.113043132    
N         -2.388211939        -2.091904133        0.7960460733    
H         -2.181731083        -3.081720002        0.7895623678    
CA        -2.638882792        -1.459634242       -0.5101232983    
HA        -2.321375613        -2.184835558        -1.261354653    
CB        -4.154320408        -1.276777115       -0.7004790818    
HB        -4.667812930        -2.222431827       -0.5218530806    
HB        -4.532249465       -0.5257078781       -0.5905852968E-02
HB        -4.362825045       -0.9542106553        -1.721299027    
C         -1.789816873       -0.1931650358       -0.8016478113    
O         -2.232903042        0.7242018271        -1.502441308    
N        -0.5672629970       -0.1321946352       -0.2597315755    
H        -0.2559272391       -0.9205539348        0.2872598495    
CA        0.3626208150        0.9887774200       -0.4266217025    
HA       -0.1934794580         1.917868156       -0.2854290744    
CB         1.421696046        0.9098026247        0.6816079202    
HB         2.008010852       -0.4353271784E-02    0.5749866091    
HB         2.090401250         1.769253752        0.6160857820    
HB        0.9374846487        0.9164678098         1.659427262    
C          1.001323402         1.039493376        -1.833899843    
O          1.111007890        0.2059802232E-01    -2.527112280    
N          1.449840741         2.229571119        -2.247178896    
H          1.347488556         3.018742170        -1.625884553    
CA         2.127115200         2.458509481        -3.527753777    
HA         1.565290707         1.942307686        -4.308950032    
CB         2.081981426         3.960610981        -3.840375176    
HB         2.526381654         4.148173378        -4.818832552    
HB         1.047264265         4.306504976        -3.853825943    
HB         2.639146396         4.517228644        -3.085031994    
C          3.572250223         1.906280019        -3.553280862    
O          4.226253476         1.770798002        -2.511289742    
N          4.083678695         1.611505303        -4.756541831    
H          3.492521593         1.760202262        -5.563907840    
CH         5.432920892         1.092829993        -4.988352598    
HH         5.595422828        0.9336522395        -6.056207562    
HH         5.564694080        0.1424963811        -4.466713246    
HH         6.176546505         1.803330271        -4.621186847    
    52
Energy=    -32.5223488057188    
HH        -2.331056755       -0.3538246242         7.345818806    
CH        -1.685971306        -1.214360503         7.172856117    
HH       -0.6830192384       -0.8713716955         6.921839384    
HH        -1.647419973        -1.828001568         8.072097265    
C         -2.237607663        -2.028365045         6.023635809    
O         -2.560692468        -3.203579449         6.199380401    
N         -2.341992595        -1.401197739         4.852746021    
H         -2.036114220       -0.4395714627         4.808797713    
CA        -2.837358512        -2.001198730         3.607994894    
HA        -2.682971406        -3.081308560         3.648198085    
CB        -4.347630789        -1.736421392         3.506579009    
HB        -4.749333557        -2.209353022         2.609411429    
HB        -4.856745652        -2.151134572         4.377737527    
HB        -4.536508410       -0.6627987257         3.458186264    
C         -2.088340587        -1.475050527         2.361907280    
O         -1.483234922       -0.3993459511         2.405872291    
N         -2.151863143        -2.250621779         1.268396062    
H         -2.671845961        -3.109786709         1.377852468    
CA        -1.623644316        -2.016009219       -0.8866639064E-01
HA       -0.9114461997        -2.814979616       -0.3035920366    
CB        -2.794695725        -2.184307993        -1.069803050    
HB        -3.228454667        -3.179893191       -0.9659538114    
HB        -3.564063926        -1.436622636       -0.8702642149    
HB        -2.436741079        -2.064190282        -2.093368156    
C        -0.8789440932       -0.6757605439       -0.3193795095    
O         -1.490348571        0.3591229619       -0.6146170833    
N         0.4542140533       -0.7044787820       -0.2102234388    
H         0.8948369968        -1.581138366        0.2671160262E-01
CA         1.324105027        0.4567576297       -0.4216018812    
HA        0.8952818471         1.305952370        0.1144758467    
CB         2.694829077        0.1593061794        0.2016694305    
HB         3.163605738       -0.6833855723       -0.3091304217    
HB         3.340731453         1.033568430        0.1090282363    
HB         2.577962395       -0.7915229270E-01     1.259950771    
C          1.443223902        0.8590609915        -1.909934475    
O          1.266061548        0.3411371978E-01    -2.814857288    
N          1.772800080         2.129940507        -2.163914703    
H          1.922737827         2.748545041        -1.380268756    
CA         1.979548734         2.677228383        -3.508771938    
HA         1.162512798         2.334308140        -4.146921733    
CB         1.894520418         4.207784607        -3.429672860    
HB         1.984454745         4.635264800        -4.429284758    
HB        0.9336492982         4.505290396        -3.006963961    
HB         2.700057411         4.595769118        -2.804068605    
C          3.303404156         2.204809801        -4.155506102    
O          4.268222172         1.857234640        -3.462574645    
N          3.358668771         2.218708495        -5.494547483    
H          2.533753554         2.527091892        -5.992376034    
CH         4.523305576         1.822916708        -6.288387740    
HH         4.303302645         1.923064718        -7.353107298    
HH         4.784708543        0.7834406231        -6.079188254    
HH         5.377547272         2.457930197        -6.044196084    
    52
Energy=    -38.5850076131322    
HH        -3.410474250        -1.192823547         7.637599068    
CH        -3.506767055        -2.222473754         7.295362244    
HH        -2.562762701        -2.744711901         7.445999977    
HH        -4.294091469        -2.722002130         7.858631100    
C         -3.851391189        -2.228525303         5.822661486    
O         -4.896474985        -2.752605921         5.435949607    
N         -2.971673856        -1.647148738         5.008193986    
H         -2.136969127        -1.258087133         5.423025079    
CA        -3.099604087        -1.550023431         3.549333548    
HA        -3.732297400        -2.364590042         3.191345485    
CB        -3.789405124       -0.2205179893         3.206992082    
HB        -3.932328960       -0.1427535685         2.128380501    
HB        -4.764675317       -0.1719301705         3.693321990    
HB        -3.177002523        0.6164878189         3.546103063    
C         -1.737036616        -1.677935522         2.832064246    
O        -0.6771397154        -1.445033183         3.425865304    
N         -1.764780103        -2.031395179         1.542669359    
H         -2.664195305        -2.191034984         1.112377448    
CA       -0.5752416223        -2.154136102        0.6935884106    
HA        0.1843291237        -2.710598891         1.246675641    
CB       -0.9447005929        -2.980157343       -0.5461639863    
HB        -1.334086351        -3.952988650       -0.2421442057    
HB        -1.700337929        -2.456132710        -1.133727382    
HB       -0.5950514567E-01    -3.135038977        -1.164704829    
C         0.3679333133E-01   -0.7861906500        0.3120616734    
O        -0.6523050732        0.2408519685        0.2837544391    
N          1.334475983       -0.7777404328       -0.1086839449E-01
H          1.837018182        -1.653103617        0.1365447658E-01
CA         2.069494344        0.4142983975       -0.4460707167    
HA         1.818061545         1.236210633        0.2275110107    
CB         3.572692186        0.1396844955       -0.3020239292    
HB         3.869787245       -0.6747285070       -0.9648078727    
HB         4.138910390         1.034490415       -0.5644345368    
HB         3.803954413       -0.1311762882        0.7292889225    
C          1.700616184        0.8595146422        -1.880383738    
O          1.261801332        0.5387716745E-01    -2.710453911    
N          1.906060053         2.146173825        -2.181333048    
H          2.284941193         2.748100714        -1.464804960    
CA         1.662865417         2.734991597        -3.502357161    
HA        0.6927630070         2.383816733        -3.860067154    
CB         1.575093326         4.259527927        -3.346948539    
HB         1.333503587         4.715857609        -4.307910592    
HB        0.7924171045         4.515702356        -2.631227658    
HB         2.529351077         4.655727644        -2.995924259    
C          2.722081684         2.321248127        -4.551590084    
O          3.864388639         1.986120099        -4.212966065    
N          2.348331015         2.371815710        -5.837683071    
H          1.401527688         2.667102487        -6.037140063    
CH         3.208239865         2.033516251        -6.973164789    
HH         2.658976834         2.154473991        -7.908973504    
HH         3.544767664        0.9976268273        -6.893865986    
HH         4.082004384         2.688367026        -6.990669713    
