    52
Energy=    -34.6022075798413    
HH        -6.473865829        -2.810978071         1.141659048    
CH        -6.179145610        -1.855220992        0.7100905585    
HH        -5.698448347        -2.024582535       -0.2526334750    
HH        -7.060361931        -1.229657692        0.5729283404    
C         -5.205308414        -1.166895301         1.640267252    
O         -5.477416964       -0.6190962848E-01     2.110525015    
N         -4.074295301        -1.821573467         1.899965383    
H         -3.940761671        -2.718192115         1.454255975    
CA        -2.989739936        -1.335792501         2.761255548    
HA        -3.025973384       -0.2452295837         2.799050597    
CB        -3.216231577        -1.871770211         4.183129709    
HB        -3.180892594        -2.962394447         4.181834581    
HB        -2.442666516        -1.491237048         4.851551145    
HB        -4.189319098        -1.544942525         4.552457672    
C         -1.596236431        -1.731326651         2.224752057    
O         -1.458701133        -2.700471197         1.470321024    
N        -0.5611883772       -0.9834496140         2.632754289    
H        -0.7622973341       -0.2241153612         3.269679527    
CA        0.8508918497        -1.182705894         2.265059092    
HA         1.379027779       -0.2892436597         2.602664229    
CB         1.423717094        -2.355615746         3.079121390    
HB        0.9677964067        -3.293277948         2.759176636    
HB         1.224467233        -2.203072660         4.140686943    
HB         2.502793488        -2.416401319         2.932217507    
C          1.128404357        -1.253360020        0.7395380841    
O          2.052331353        -1.939990224        0.2904532545    
N         0.3285579867       -0.5428626578       -0.6703492050E-01
H        -0.4102635802       -0.2920718163E-02    0.3604160838    
CA        0.3862344557       -0.5753337754        -1.534491339    
HA        0.5357187663        -1.609751605        -1.849277448    
CB       -0.9799268968       -0.1200784257        -2.064519414    
HB        -1.165678645        0.9173101039        -1.781680474    
HB       -0.9963699038       -0.1993754240        -3.152371722    
HB        -1.767978545       -0.7542408331        -1.655422083    
C          1.539829107        0.2542866125        -2.149062518    
O          1.888267997        0.4048018544E-01    -3.315302787    
N          2.140320350         1.168140571        -1.370284080    
H          1.788471619         1.258025688       -0.4289880431    
CA         3.193984479         2.114923968        -1.771527191    
HA         3.361283795         2.775797209       -0.9190229676    
CB         4.508869291         1.339029089        -1.975536211    
HB         5.343929072         2.032715663        -2.077450786    
HB         4.698759529        0.6979418323        -1.113356518    
HB         4.450300284        0.7232918090        -2.873615435    
C          2.816587258         3.054653478        -2.949868875    
O          1.684614362         3.050866962        -3.450001387    
N          3.760734102         3.910937499        -3.366763359    
H          4.659193928         3.873995721        -2.903931454    
CH         3.591791588         4.888381170        -4.443772974    
HH         2.789337426         5.586174556        -4.195308262    
HH         4.515949350         5.451630015        -4.587763595    
HH         3.340904010         4.379387518        -5.376823626    
    52
Energy=    -33.8316239753092    
HH        -7.126651756        -2.012319243         1.252607886    
CH        -6.189463039        -1.856488728        0.7202086924    
HH        -5.805292627        -2.818923920        0.3838517160    
HH        -6.355841577        -1.216053902       -0.1447915893    
C         -5.201529659        -1.183492371         1.648925553    
O         -5.471422469       -0.8122596076E-01     2.126236494    
N         -4.067364113        -1.836773090         1.902450812    
H         -3.930953576        -2.731269002         1.453735112    
CA        -2.981513037        -1.350924085         2.762304997    
HA        -3.019641605       -0.2605343165         2.803125696    
CB        -3.203145743        -1.891218535         4.183336749    
HB        -3.165551140        -2.981761157         4.179031142    
HB        -2.428624201        -1.510882353         4.850764283    
HB        -4.175921122        -1.567409442         4.556131060    
C         -1.588619790        -1.742301921         2.221167591    
O         -1.451436595        -2.708501222         1.462909652    
N        -0.5537504357       -0.9943632235         2.629493704    
H        -0.7545289451       -0.2375969789         3.269575690    
CA        0.8578180199        -1.190393814         2.258121909    
HA         1.385446205       -0.2973982569         2.597750570    
CB         1.433957381        -2.365357589         3.066866802    
HB        0.9786400424        -3.302519281         2.744603283    
HB         1.236741365        -2.216800435         4.129377213    
HB         2.512803404        -2.424150711         2.917478883    
C          1.132218198        -1.255309758        0.7317893639    
O          2.055907292        -1.939372986        0.2783200955    
N         0.3299663968       -0.5427449468       -0.7055690803E-01
H        -0.4085379008       -0.5122864086E-02    0.3603562918    
CA        0.3847884775       -0.5697216323        -1.538237106    
HA        0.5344142352        -1.602851187        -1.857159939    
CB       -0.9827266838       -0.1134853603        -2.063904691    
HB        -1.168678221        0.9227029338        -1.776829645    
HB        -1.001226439       -0.1887284129        -3.152011826    
HB        -1.769523094       -0.7497470351        -1.655653854    
C          1.536555392        0.2630515637        -2.151972541    
O          1.883067541        0.5364369834E-01    -3.319584121    
N          2.137666536         1.174684155        -1.371071280    
H          1.787430568         1.260970423       -0.4288374191    
CA         3.189799550         2.123773228        -1.770881967    
HA         3.358070446         2.781795316       -0.9163658587    
CB         4.504974846         1.349726321        -1.979975031    
HB         5.339259392         2.044481626        -2.080954358    
HB         4.696961642        0.7057810566        -1.120393386    
HB         4.445313421        0.7370934449        -2.880103078    
C          2.809481461         3.067306014        -2.945238528    
O          1.676611407         3.064307597        -3.443340982    
N          3.752149077         3.925851544        -3.360827210    
H          4.651473589         3.888053642        -2.899747105    
CH         3.580435930         4.906920640        -4.434095791    
HH         2.777840176         5.603153252        -4.181740471    
HH         4.503854823         5.471459664        -4.577773812    
HH         3.328297256         4.400987400        -5.368472740    
    52
Energy=    -34.6022075798426    
HH        -7.056781578        -1.238715243        0.5970275979    
CH        -6.174534351        -1.864761247        0.7250563273    
HH        -6.466597126        -2.824067975         1.150512443    
HH        -5.698349451        -2.026248229       -0.2412565882    
C         -5.196676409        -1.183122621         1.655938948    
O         -5.467208118       -0.8203918548E-01     2.136154135    
N         -4.064030812        -1.839081748         1.905075203    
H         -3.932082776        -2.732087589         1.451706270    
CA        -2.975661618        -1.359368786         2.764954392    
HA        -3.012383084       -0.2691599070         2.811483206    
CB        -3.195012371        -1.906636286         4.183644012    
HB        -3.159010523        -2.997193517         4.173617343    
HB        -2.418488899        -1.530856789         4.851324086    
HB        -4.166520499        -1.583351126         4.560177503    
C         -1.584500808        -1.749772421         2.218701814    
O         -1.449985031        -2.712876712         1.456036146    
N        -0.5479700931        -1.004446107         2.627606603    
H        -0.7464927380       -0.2502648585         3.271428381    
CA        0.8624551599        -1.199890567         2.251607315    
HA         1.391653090       -0.3087613273         2.593685933    
CB         1.439892421        -2.378779294         3.053686660    
HB        0.9830204657        -3.314198659         2.728575383    
HB         1.245635147        -2.234701474         4.117358140    
HB         2.518290025        -2.437707114         2.901149361    
C          1.132702220        -1.258389828        0.7242684927    
O          2.054889360        -1.940872498        0.2653920406    
N         0.3285663737       -0.5421057978       -0.7286602819E-01
H        -0.4085310379       -0.6016482309E-02    0.3623403815    
CA        0.3792345773       -0.5630220706        -1.540791276    
HA        0.5278448500        -1.594840059        -1.864400174    
CB       -0.9897286741       -0.1045115523        -2.060687178    
HB        -1.174760686        0.9305041986        -1.768827472    
HB        -1.011332518       -0.1752798554        -3.149037373    
HB        -1.775422602       -0.7423781647        -1.652815605    
C          1.529363229        0.2721472942        -2.154342065    
O          1.872344012        0.6772721787E-01    -3.323878654    
N          2.133016174         1.180252179        -1.371294628    
H          1.785624389         1.262517907       -0.4276493642    
CA         3.184165346         2.130841488        -1.770128307    
HA         3.355139825         2.785112643       -0.9132718774    
CB         4.498533999         1.357428144        -1.986510929    
HB         5.332670218         2.052436920        -2.086970104    
HB         4.692944571        0.7097180298        -1.130309356    
HB         4.436042540        0.7487199503        -2.889106172    
C          2.800552647         3.079543838        -2.939236715    
O          1.666200249         3.078944996        -3.433962682    
N          3.742166296         3.939688391        -3.353907278    
H          4.642854733         3.899700762        -2.895683035    
CH         3.567468063         4.925444257        -4.422389053    
HH         2.765783937         5.620742515        -4.164618036    
HH         4.490579359         5.490408574        -4.566371633    
HH         3.312428824         4.423625586        -5.358196533    
