    52
Energy=    -37.1738336533404    
HH        -4.711136675         2.616378032         2.366057998    
CH        -3.691710928         2.682546631         2.744161389    
HH        -3.084372535         3.263105185         2.050870085    
HH        -3.695071888         3.166680122         3.720005556    
C         -3.113841778         1.290528140         2.868105277    
O         -2.733439572        0.8733062412         3.962467038    
N         -3.049501626        0.5728059301         1.747463346    
H         -3.380232592        0.9994125626        0.8948832016    
CA        -2.498818539       -0.7835300002         1.665590504    
HA        -2.907052971        -1.368650228         2.492251226    
CB        -2.979299511        -1.426303178        0.3564895301    
HB        -2.636100625        -2.460529005        0.3026946750    
HB        -4.069765113        -1.418276432        0.3177650532    
HB        -2.584590178       -0.8754046236       -0.4990892801    
C        -0.9589760243       -0.8165122759         1.788056749    
O        -0.2670337229        0.1518835744         1.455114803    
N        -0.4092623517        -1.962734870         2.207641259    
H         -1.027106493        -2.724412509         2.453148943    
CA         1.031634580        -2.161603249         2.422741647    
HA         1.385715013        -1.384264713         3.102424843    
CB         1.220056210        -3.518021119         3.114667999    
HB        0.8771899297        -4.323325527         2.462847081    
HB        0.6546697092        -3.541773948         4.047510962    
HB         2.276107035        -3.670501042         3.342204836    
C          1.884355629        -2.062992304         1.134986859    
O          3.088193029        -1.799377741         1.207305728    
N          1.267533904        -2.228674300       -0.4235080475E-01
H         0.2913555158        -2.486352621       -0.2810999837E-01
CA         1.903736987        -2.050278880        -1.352587004    
HA         2.898343816        -2.498537082        -1.317638727    
CB         1.074376100        -2.828435623        -2.382925426    
HB        0.7408284077E-01    -2.399289780        -2.460424058    
HB         1.558764453        -2.777495775        -3.358980442    
HB        0.9977296032        -3.875232422        -2.085097699    
C          2.088872643       -0.5690005006        -1.769964468    
O          2.792097066       -0.2983935096        -2.749491934    
N          1.487309131        0.3776415807        -1.031117116    
H         0.9535494925        0.6448139708E-01   -0.2306603538    
CA         1.443073280         1.821883167        -1.306995486    
HA        0.7809665782         2.258557784       -0.5570048138    
CB         2.836439918         2.425330911        -1.049332691    
HB         2.781786785         3.514308255        -1.054136983    
HB         3.204837938         2.104405968       -0.7378628643E-01
HB         3.537332520         2.104469381        -1.820591993    
C         0.8216484161         2.209459618        -2.676705560    
O         0.3623727675         1.359009574        -3.449450899    
N         0.7591201436         3.518268856        -2.961939129    
H          1.137937654         4.161885134        -2.279961494    
CH        0.1907525999         4.084367321        -4.186760996    
HH        0.2739838733         5.172881122        -4.170915982    
HH       -0.8636359313         3.813087643        -4.271826454    
HH        0.7250241899         3.703218929        -5.059610507    
    52
Energy=    -31.2736332346031    
HH        -4.197347939         3.026460883         2.064922700    
CH        -3.110851089         3.019725635         1.987113077    
HH        -2.821020458         3.131486235        0.9430519674    
HH        -2.698022012         3.841882696         2.570468393    
C         -2.580802910         1.704916975         2.513806806    
O         -1.801108611         1.689165442         3.466791086    
N         -3.003641090        0.6040231418         1.893952131    
H         -3.637986749        0.7142401349         1.117082258    
CA        -2.568568730       -0.7545554864         2.234018024    
HA        -2.612836018       -0.8644913551         3.319497049    
CB        -3.564199502        -1.751556285         1.624229776    
HB        -3.295975899        -2.768352036         1.914715440    
HB        -4.571398821        -1.538631644         1.985764856    
HB        -3.548738777        -1.677630624        0.5355422580    
C         -1.115552189        -1.049471232         1.794486843    
O        -0.6037118375       -0.4214478756        0.8654443038    
N        -0.4830504875        -2.024065149         2.463261096    
H         -1.020804083        -2.455711935         3.201571956    
CA        0.8724787452        -2.579956273         2.287000062    
HA         1.398293997        -2.423068795         3.230538444    
CB        0.7361123828        -4.100590464         2.109090439    
HB        0.1572491465        -4.330108891         1.213184345    
HB        0.2323953816        -4.531380537         2.975720244    
HB         1.725838166        -4.551746145         2.021928927    
C          1.784148632        -1.960800933         1.196098943    
O          2.766155801        -1.286728263         1.521913604    
N          1.492780366        -2.205287576       -0.8876178239E-01
H         0.6642360414        -2.747438068       -0.2862858926    
CA         2.343645728        -1.825729503        -1.225087532    
HA         3.375036093        -2.082332899       -0.9764871150    
CB         1.925505499        -2.686377827        -2.424798150    
HB        0.9000935024        -2.451389379        -2.714579918    
HB         2.587174733        -2.486974626        -3.268790772    
HB         1.996353975        -3.744288294        -2.167575660    
C          2.332373932       -0.3177875509        -1.580961481    
O          3.197019391        0.1325438617        -2.340910847    
N          1.387539765        0.4551385339        -1.027519244    
H         0.7406681169       -0.4214176182E-02   -0.3965898634    
CA         1.129671376         1.877973809        -1.294051470    
HA        0.2222122548         2.133176362       -0.7437817061    
CB         2.258761649         2.718485745       -0.6691840643    
HB         1.992440753         3.775723630       -0.6820413574    
HB         2.415575032         2.416277659        0.3674061015    
HB         3.185886657         2.581767192        -1.226700012    
C         0.8209060097         2.224494701        -2.776279637    
O         0.7693365707         1.354117626        -3.654496824    
N         0.5622310997         3.511006127        -3.052622176    
H         0.6058499978         4.169548956        -2.286323545    
CH        0.2285462340         4.034215646        -4.378725088    
HH        0.7441602014E-01     5.113909090        -4.328323973    
HH       -0.6855761155         3.564946502        -4.748488419    
HH         1.040260565         3.826887039        -5.079234601    
    52
Energy=    -35.3093212065646    
HH        -3.148318353         3.474311720         1.747388653    
CH        -2.198704333         3.134015134         1.336106564    
HH        -2.315072403         2.941201805        0.2704841123    
HH        -1.439630914         3.900516802         1.488269314    
C         -1.782651259         1.859482334         2.035973444    
O        -0.7475702789         1.828187204         2.700941979    
N         -2.587401897        0.8087957222         1.884798277    
H         -3.413946566        0.9231365389         1.317219802    
CA        -2.327771379       -0.5162101175         2.456357510    
HA        -2.013416617       -0.3848078096         3.493763914    
CB        -3.640148563        -1.311915167         2.466013330    
HB        -3.480944657        -2.281584432         2.939909289    
HB        -4.400452793       -0.7674898113         3.028109137    
HB        -3.990075330        -1.469238219         1.444416494    
C         -1.200365928        -1.273619808         1.719552763    
O        -0.9756978941        -1.069251965        0.5216422362    
N        -0.5130122598        -2.174097876         2.433774825    
H        -0.7711584360        -2.290249750         3.403699169    
CA        0.6040561560        -2.993711099         1.944438304    
HA         1.109164953        -3.393808928         2.825382007    
CB        0.5054338220E-01    -4.214686680         1.187602834    
HB       -0.5113670211        -3.898313345        0.3075677864    
HB       -0.6134973200        -4.780700728         1.842540455    
HB        0.8717953191        -4.864291042        0.8806542147    
C          1.689202245        -2.174728543         1.200578252    
O          2.423801604        -1.409362389         1.832458471    
N          1.794225716        -2.313462053       -0.1272843198    
H          1.159785728        -2.951587622       -0.5856234574    
CA         2.769314828        -1.606320397       -0.9671101272    
HA         3.731706546        -1.609322427       -0.4520926641    
CB         2.932381211        -2.406887618        -2.266137448    
HB         1.993193338        -2.415045853        -2.821573110    
HB         3.706315751        -1.950477140        -2.884693751    
HB         3.227203722        -3.432121554        -2.037385153    
C          2.416449620       -0.1244770972        -1.252118981    
O          3.267864068        0.6157259552        -1.756855852    
N          1.191994124        0.3098261801       -0.9169651932    
H         0.5706369143       -0.3651879449       -0.4872877248    
CA        0.6164589507         1.636594778        -1.183417684    
HA       -0.4250798977         1.588308570       -0.8617651183    
CB         1.299435697         2.673511657       -0.2723817872    
HB        0.7525310164         3.616335611       -0.2984805233    
HB         1.312851850         2.312121163        0.7566943968    
HB         2.323556187         2.850924165       -0.6020488957    
C         0.5639049349         2.040959029        -2.681990257    
O         0.9429816058         1.276766342        -3.578412134    
N         0.3912049867E-01     3.242406171        -2.964168149    
H        -0.2641442049         3.813193702        -2.186489513    
CH       -0.1194943175         3.793105533        -4.311458872    
HH       -0.5637490686         4.789112908        -4.259984370    
HH       -0.7692830253         3.148117240        -4.906715221    
HH        0.8524790509         3.866300949        -4.803897225    
