    52
Energy=    -37.1738336533531    
HH        -5.296693394         2.351408469         1.026829977    
CH        -4.354104881         2.704374554         1.443376679    
HH        -4.551340972         3.452600388         2.210138960    
HH        -3.749284353         3.144184992        0.6513413930    
C         -3.608343547         1.537197839         2.050458924    
O         -3.318229373         1.542885464         3.247208285    
N         -3.299867040        0.5368132304         1.226337551    
H         -3.573820165        0.6216242812        0.2588532530    
CA        -2.559144828       -0.6638505005         1.625510924    
HA        -2.985127310        -1.033116753         2.560695580    
CB        -2.771601249        -1.745359765        0.5564156691    
HB        -3.838217342        -1.938488128        0.4310729675    
HB        -2.350372098        -1.419256400       -0.3962240170    
HB        -2.283208187        -2.671563601        0.8628811581    
C         -1.058727297       -0.3909331684         1.873430564    
O        -0.4716791322        0.5360067937         1.304588080    
N        -0.4132110907        -1.243219209         2.679023422    
H        -0.9450873832        -1.989991107         3.105166085    
CA         1.001263442        -1.114930073         3.059555260    
HA         1.152284162       -0.1194767090         3.481293026    
CB         1.286227153        -2.144503926         4.160876102    
HB         1.146517205        -3.155804000         3.775264545    
HB        0.6137868100        -1.982714677         5.004718688    
HB         2.314808392        -2.035656262         4.507919768    
C          1.991249113        -1.264063541         1.879361512    
O          3.126857361       -0.7865185396         1.958682523    
N          1.561231052        -1.882171751        0.7716294856    
H         0.6370833937        -2.288537343        0.7901571053    
CA         2.330422841        -2.000833816       -0.4723807655    
HA         3.364937821        -2.238096489       -0.2176559636    
CB         1.758314842        -3.185416452        -1.262583950    
HB        0.7263946713        -2.979917465        -1.551841144    
HB         2.353032995        -3.348820933        -2.162317042    
HB         1.790799711        -4.089847059       -0.6532321685    
C          2.359201659       -0.7064968596        -1.324747132    
O          3.138505216       -0.6271337188        -2.280578836    
N          1.540756570        0.2999510930       -0.9767306639    
H         0.9569360095        0.1559281200       -0.1630288645    
CA         1.331225747         1.562607434        -1.701779122    
HA        0.5231623574         2.083928258        -1.185238539    
CB         2.581422541         2.447560194        -1.540917480    
HB         3.414131559         2.035084399        -2.111446082    
HB         2.376226496         3.457364503        -1.897388428    
HB         2.861672743         2.505509380       -0.4880630606    
C         0.8442764709         1.404126673        -3.168153673    
O         0.6122458965        0.2937821974        -3.662756253    
N         0.6369226372         2.533841014        -3.860251576    
H         0.8306156966         3.408932913        -3.391705648    
CH        0.1583639006         2.595689505        -5.242588025    
HH       -0.8278098347         2.133000188        -5.319684944    
HH        0.8592009274E-01     3.635193356        -5.568508947    
HH        0.8490732175         2.067122811        -5.902985162    
    52
Energy=    -33.6176190692304    
HH        -4.080260614        0.7126222175        -1.602439380    
CH        -3.055152610         1.074281976        -1.532937248    
HH        -2.982472484         2.056251715        -1.998571826    
HH        -2.391269969        0.3781018716        -2.043565448    
C         -2.659498787         1.170283140       -0.7687694990E-01
O         -2.384438430         2.264616646        0.4138406340    
N         -2.637545956        0.2345830072E-01    0.6033531073    
H         -2.892849191       -0.8159065076        0.1035158124    
CA        -2.299783081       -0.1131734748         2.024742217    
HA        -2.609054968        0.7964716217         2.542746101    
CB        -3.144195658        -1.258653614         2.611036742    
HB        -4.203531491        -1.048292918         2.454835196    
HB        -2.897858093        -2.204203070         2.124597514    
HB        -2.966455467        -1.341552626         3.684575312    
C        -0.7707866008       -0.2317349382         2.244267667    
O        -0.2129464876E-01    0.6785237870         1.881063420    
N        -0.2788034877        -1.344508580         2.806604575    
H        -0.9298719442        -2.061678035         3.094324664    
CA         1.146560405        -1.562870433         3.097501798    
HA         1.496076137       -0.7460758384         3.731765855    
CB         1.269132149        -2.868480374         3.893860942    
HB        0.9272981226        -3.710946720         3.290237152    
HB        0.6691157372        -2.807549006         4.803088330    
HB         2.311196197        -3.031269941         4.172955464    
C          2.048796648        -1.584324762         1.839742326    
O          3.241040753        -1.276264624         1.926137223    
N          1.481853484        -1.899809385        0.6677403944    
H         0.5135475917        -2.186792091        0.6800733602    
CA         2.157546838        -1.853529510       -0.6351441692    
HA         3.203365995        -2.131886696       -0.4937439081    
CB         1.511698207        -2.918277802        -1.532379219    
HB        0.4672494876        -2.665485983        -1.721648863    
HB         2.042420022        -2.969891885        -2.483956870    
HB         1.566239917        -3.894840795        -1.048958957    
C          2.153095379       -0.4538478780        -1.302953384    
O          2.773772478       -0.2810568503        -2.357394359    
N          1.476182820        0.5338799642       -0.6952866922    
H          1.045169552        0.3125472747        0.1928115078    
CA         1.197272867         1.880727297        -1.216698310    
HA        0.5448385993         2.359338176       -0.4838715156    
CB         2.496198323         2.706009053        -1.229758989    
HB         3.173973053         2.334441395        -1.998764136    
HB         2.272029212         3.753065684        -1.435861989    
HB         2.986137220         2.642149574       -0.2570753758    
C         0.4080160334         1.922918471        -2.552221854    
O         0.1454947136        0.8975812828        -3.192160150    
N        -0.1247393782E-01     3.128804809        -2.959958739    
H         0.2259166754         3.925157877        -2.383706206    
CH       -0.7850622534         3.379549176        -4.177967448    
HH        -1.708653053         2.797155698        -4.164701807    
HH        -1.038106230         4.439133611        -4.250334622    
HH       -0.2018153624         3.095833518        -5.056478900    
    52
Energy=    -37.9728100101827    
HH        -4.718306642        -3.151274281        0.5594714573E-01
CH        -3.670261636        -3.411990982        0.1983567071    
HH        -3.316678122        -3.983336604       -0.6592051678    
HH        -3.564414046        -4.008687613         1.103560160    
C         -2.856592279        -2.146290774        0.3353328939    
O         -1.945905686        -1.905541711       -0.4560150260    
N         -3.165947395        -1.344823037         1.355250482    
H         -3.927686286        -1.622443389         1.957912925    
CA        -2.540215290       -0.3813464185E-01     1.599866423    
HA        -2.667842039        0.5739937636        0.7051563280    
CB        -3.297134475        0.6386814338         2.750252819    
HB        -4.354554561        0.7295951734         2.497283663    
HB        -3.193162227        0.5259977031E-01     3.664936456    
HB        -2.890998504         1.637018636         2.919643299    
C         -1.023079180       -0.1097465150         1.890315484    
O        -0.3017389321        0.8650903557         1.659779682    
N        -0.5178243216        -1.267948860         2.334880672    
H         -1.164822385        -2.022472625         2.515313844    
CA        0.9059840406        -1.514436330         2.591191491    
HA         1.268879944       -0.7467995814         3.277187415    
CB         1.027502482        -2.874430326         3.290938823    
HB        0.6752296181        -3.669206966         2.631238671    
HB        0.4355560361        -2.875638470         4.207470933    
HB         2.070772805        -3.062854621         3.548407341    
C          1.791818582        -1.451179224         1.323389088    
O          3.006934834        -1.260950608         1.431000896    
N          1.200577763        -1.565636268        0.1258008617    
H         0.2051658638        -1.749470457        0.9916747114E-01
CA         1.891022262        -1.404702829        -1.159188120    
HA         2.872933528        -1.875610025        -1.085108007    
CB         1.090262269        -2.164861985        -2.224566314    
HB        0.1120830738        -1.701285349        -2.359004612    
HB         1.626553661        -2.140975638        -3.174012864    
HB        0.9598672621        -3.204710030        -1.921607990    
C          2.128245150        0.7193891541E-01    -1.565521134    
O          2.868716963        0.3269747058        -2.521542886    
N          1.531014074         1.031630934       -0.8399464205    
H         0.9636095050        0.7284922647       -0.5973294713E-01
CA         1.540544075         2.478420927        -1.105816159    
HA        0.8664071525         2.930530831       -0.3759673599    
CB         2.942202667         3.035990861       -0.7950218513    
HB         3.659387144         2.698087697        -1.543722128    
HB         2.921916463         4.126164917       -0.7934980249    
HB         3.265906342         2.697378870        0.1903603576    
C         0.9802864854         2.894937409        -2.493439520    
O         0.5205045478         2.065110451        -3.287966299    
N         0.9708154248         4.206861328        -2.771048293    
H          1.346389300         4.833302107        -2.071502246    
CH        0.4647549692         4.799111586        -4.010752409    
HH       -0.5943856618         4.563579094        -4.134503000    
HH        0.5832721467         5.884136803        -3.984024024    
HH         1.016433537         4.405810705        -4.867229529    
