          52
Energy of minimum      1=    -12.94781157     first found at step      101 after                47286 function calls
HH31       -3.6598578086        1.7081685103       -1.5209352148
CH3        -4.3451221225        1.0984701539       -0.9345717778
HH32       -5.1010370918        0.6737278223       -1.5919185730
HH33       -4.8228831744        1.7100868382       -0.1709570529
C          -3.5901080349       -0.0266310695       -0.2675884529
O          -3.8358601891       -0.3355851772        0.8928719167
N          -2.6516948487       -0.6353481444       -0.9865276959
H          -2.4092235126       -0.2309202226       -1.8825511895
CA         -1.9145117657       -1.8223917446       -0.5479901351
HA         -2.6007251360       -2.4462486776        0.0276041083
CB         -1.5143090334       -2.6323254147       -1.7891269363
HB1        -2.4057112642       -2.9112228470       -2.3522425970
HB2        -0.8597486344       -2.0418278919       -2.4276002401
HB3        -0.9918060045       -3.5398334015       -1.4839769459
C          -0.7430178081       -1.4844908684        0.4027004057
O           0.4175975041       -1.7701405437        0.1067120289
N          -1.0560879921       -0.8606642316        1.5443288092
H          -2.0391881224       -0.6391491753        1.6698035503
CA         -0.1429113910       -0.4678485883        2.6275474038
HA         -0.7046004791        0.2146031603        3.2673468771
CB          0.1866448696       -1.6911869188        3.4978688870
HB1        -0.7358019855       -2.1233419456        3.8880457860
HB2         0.8143802972       -1.3872952196        4.3366024144
HB3         0.7101772550       -2.4468582427        2.9107956850
C           1.0894445486        0.3452562607        2.1732482261
O           1.0355362426        1.5720178500        2.1558085908
N           2.1815743701       -0.3146431157        1.7705348497
H           2.1292365979       -1.3213274554        1.7305644275
CA          3.3468550141        0.3394078466        1.1642463173
HA          3.6966807943        1.1269170165        1.8343625779
CB          4.4589338064       -0.7059853195        1.0178477842
HB1         4.7085975869       -1.1228709137        1.9942680358
HB2         5.3483849912       -0.2322417700        0.5995609304
HB3         4.1366746965       -1.5072397253        0.3510746211
C           3.0135762975        1.0061715977       -0.1885678684
O           3.6287666626        2.0031412802       -0.5532801365
N           1.9977322681        0.4968193744       -0.8935174346
H           1.5656341102       -0.3493567724       -0.5399775667
CA          1.3456228582        1.1442424515       -2.0328067068
HA          1.9139484229        2.0358911528       -2.3026473803
CB          1.3977350546        0.1958409034       -3.2380163699
HB1         2.4362249288       -0.0327538425       -3.4803347074
HB2         0.9304235526        0.6712560593       -4.1012716372
HB3         0.8725966313       -0.7293560218       -3.0094287356
C          -0.0688541995        1.6409927391       -1.6516590060
O          -1.0444596426        1.4124668726       -2.3693743037
N          -0.1869062251        2.2692886434       -0.4735038845
H           0.6471284402        2.3528018112        0.0966946220
CH3        -1.4152448313        2.8375155037        0.0743280419
HH31       -1.1659693191        3.6342307709        0.7771789783
HH32       -2.0293173397        3.2521824701       -0.7269905893
HH33       -1.9751498453        2.0675881725        0.6054172626
          52
Energy of minimum      2=    -8.658625298     first found at step       29 after                12912 function calls
HH31       -2.3581180459        3.3556048007       -2.7564646402
CH3        -2.1002096580        3.9646816198       -1.8920789052
HH32       -2.6347372919        4.9119510420       -1.9354403334
HH33       -1.0278182719        4.1465587355       -1.8878938657
C          -2.4857072326        3.2350765840       -0.6275446499
O          -3.1113851665        3.8221850996        0.2467718351
N          -2.1191867763        1.9579478284       -0.5222346793
H          -1.5576252556        1.5654732838       -1.2681834706
CA         -2.4673059655        1.1109413037        0.6225863288
HA         -2.6171497141        1.7495677629        1.4947108859
CB         -3.7993129688        0.4082571372        0.3258140022
HB1        -4.5755611665        1.1522285431        0.1399499200
HB2        -4.0935754275       -0.2027914568        1.1794675597
HB3        -3.6962624919       -0.2300501771       -0.5531618430
C          -1.3710995598        0.0880683855        0.9741596983
O          -0.9356447331       -0.6888295968        0.1247644115
N          -0.9735648783        0.0451280256        2.2520759516
H          -1.3687675195        0.7245234639        2.8823237503
CA         -0.0000266217       -0.9011485164        2.8135953435
HA          0.3358649290       -0.4846453177        3.7641099959
CB         -0.7189661014       -2.2208852231        3.1473081209
HB1        -0.0304789121       -2.9052115234        3.6449631235
HB2        -1.1016084015       -2.6849359827        2.2366418942
HB3        -1.5558892058       -2.0234960715        3.8185938723
C           1.2857210248       -1.0383398404        1.9625017214
O           2.0128594444       -0.0622961420        1.7956090070
N           1.5662980741       -2.2240924798        1.4074924792
H           0.9190904783       -2.9814467653        1.5534249908
CA          2.7368880989       -2.4775830209        0.5569053350
HA          3.6296548029       -2.1510363107        1.0933786308
CB          2.8392898602       -3.9915396683        0.3333293316
HB1         2.9122698830       -4.5072441170        1.2915421726
HB2         3.7337411625       -4.2114503762       -0.2519588153
HB3         1.9646536107       -4.3510903620       -0.2106077129
C           2.7205841951       -1.7077211305       -0.7843844627
O           3.7552477833       -1.5877293878       -1.4329350642
N           1.5667042221       -1.1608400960       -1.1771396772
H           0.7534107828       -1.2989720174       -0.5890570747
CA          1.3828439869       -0.2462870331       -2.3025256092
HA          2.3321648155       -0.1385483960       -2.8294404522
CB          0.3776067165       -0.8759883041       -3.2778702839
HB1        -0.5951179653       -0.9781032342       -2.7946374065
HB2         0.7321254097       -1.8583600302       -3.5917154136
HB3         0.2733303288       -0.2415062887       -4.1589058955
C           0.9879309901        1.1708316503       -1.8228508266
O           0.2107276083        1.8613590874       -2.4807415372
N           1.4685324182        1.5897202143       -0.6424981659
H           2.0347087791        0.9396181190       -0.1092290147
CH3         1.2334717114        2.9068291745       -0.0540773916
HH31        0.2761605132        2.9189612959        0.4669731440
HH32        1.2265188069        3.6703540057       -0.8344975618
HH33        2.0267188948        3.1363017035        0.6590812467
          52
Energy of minimum      3=    -8.324103558     first found at step       27 after                11851 function calls
HH31       -3.3214894299        2.6373314122       -3.0264259076
CH3        -2.4296644468        3.1129830808       -2.6251399809
HH32       -2.4507334404        4.1798664706       -2.8419603850
HH33       -1.5420688110        2.6745281004       -3.0756486411
C          -2.3904014783        2.9195545380       -1.1275986247
O          -2.5389603081        3.8774306942       -0.3788651342
N          -2.2206625069        1.6750770171       -0.6834357022
H          -2.0543466088        0.9434039746       -1.3560386613
CA         -2.2394142182        1.3054511289        0.7333803447
HA         -1.9011067587        2.1595957477        1.3229762437
CB         -3.6865240342        0.9842857510        1.1348471012
HB1        -4.3229095694        1.8491292116        0.9396754566
HB2        -3.7366024311        0.7471354458        2.1977312103
HB3        -4.0528565210        0.1328454665        0.5593517353
C          -1.3026354802        0.1250531540        1.0458448082
O          -0.9616041422       -0.6651456629        0.1635428782
N          -0.9156012457       -0.0122341254        2.3201331995
H          -1.2333217548        0.6799114245        2.9796682684
CA         -0.0108312702       -1.0531492095        2.8217906322
HA          0.3368081886       -0.7306107352        3.8041057234
CB         -0.8033746148       -2.3540250066        3.0443085362
HB1        -0.1586106265       -3.1107046406        3.4933689808
HB2        -1.1975165693       -2.7259898942        2.0970868257
HB3        -1.6376883380       -2.1641093400        3.7209263222
C           1.2686073864       -1.1822162563        1.9641457938
O           2.0250127670       -0.2199445882        1.8611627045
N           1.4997411331       -2.3306670531        1.3177162056
H           0.8223275166       -3.0703441770        1.4064515261
CA          2.6612320035       -2.5676010043        0.4511285203
HA          3.5647659172       -2.3445643267        1.0214702718
CB          2.6811091428       -4.0580460184        0.0886789458
HB1         2.7125397359       -4.6636190990        0.9951602049
HB2         3.5692211331       -4.2742209930       -0.5076004526
HB3         1.7948008599       -4.3148391303       -0.4932233417
C           2.7102066013       -1.6773690087       -0.8137746225
O           3.7480055321       -1.6080022624       -1.4648850145
N           1.6140459572       -0.9868421072       -1.1462577963
H           0.7844818488       -1.1101804982       -0.5786335275
CA          1.5243316458        0.0091362651       -2.2159390460
HA          2.4748798300        0.0418136854       -2.7507339601
CB          0.4488400482       -0.4555832797       -3.2085999288
HB1        -0.5250300700       -0.4798443706       -2.7187578969
HB2         0.6938839988       -1.4516728921       -3.5789686501
HB3         0.4072137211        0.2322075783       -4.0542612161
C           1.2813102671        1.4431720487       -1.6868042045
O           0.8978938106        2.3219364578       -2.4553612659
N           1.4626635373        1.6862958882       -0.3798362425
H           1.8008008838        0.9286970404        0.2035338573
CH3         1.2512483094        2.9864896935        0.2530201160
HH31        0.2288476155        3.3270812656        0.0781523888
HH32        1.9375667282        3.7185139459       -0.1767568360
HH33        1.4315685554        2.9125991928        1.3261482376
          52
Energy of minimum      4=    -6.935298532     first found at step       13 after                 5545 function calls
HH31       -3.6322872074        2.7324839673       -2.1006361545
CH3        -2.5717546291        2.5686503364       -2.2814658790
HH32       -2.4277759189        1.6331583098       -2.8184784555
HH33       -2.1703515156        3.3934634264       -2.8687424115
C          -1.8454031036        2.5101103506       -0.9578704372
O          -1.0044516468        3.3562450561       -0.6844474471
N          -2.1680638652        1.5010844145       -0.1518948280
H          -2.8315441198        0.8181412866       -0.4819585163
CA         -1.5957194731        1.2710655466        1.1758258203
HA         -0.6804209920        1.8548770277        1.2778728470
CB         -2.5902157549        1.7739186103        2.2306073574
HB1        -3.5217646010        1.2099349475        2.1644244322
HB2        -2.7968255617        2.8324541122        2.0655238309
HB3        -2.1672695512        1.6505266158        3.2280061397
C          -1.2417951089       -0.2146567729        1.3874149207
O          -1.8095315706       -1.0860895244        0.7273422586
N          -0.3276270079       -0.4947386455        2.3247521074
H           0.1234412418        0.3034282685        2.7464602073
CA          0.2218402499       -1.8102306725        2.7010630676
HA          0.9846517976       -1.6145420358        3.4563397017
CB         -0.8574489646       -2.6514796234        3.3987506383
HB1        -0.4122434763       -3.5730315066        3.7761020490
HB2        -1.2792268502       -2.0944745193        4.2360623395
HB3        -1.6541871028       -2.9052986758        2.6986157039
C           0.9652338925       -2.5690577269        1.5791826052
O           2.1479451767       -2.8578616487        1.7272083334
N           0.3142364114       -2.8370895195        0.4444431561
H          -0.6591136900       -2.5575607461        0.3930349442
CA          0.9651932889       -3.2807393610       -0.7951140622
HA          1.7754094910       -3.9674230473       -0.5430236096
CB         -0.0710974738       -4.0470824413       -1.6265408593
HB1         0.3998026511       -4.4279619083       -2.5340033794
HB2        -0.8927688835       -3.3850017372       -1.9030633692
HB3        -0.4596164958       -4.8883465998       -1.0513914490
C           1.5955935224       -2.1116409579       -1.5895916406
O           2.2731516278       -2.3257901268       -2.5913377865
N           1.3570357434       -0.8749173401       -1.1456276894
H           0.8259613362       -0.7903330268       -0.2932718967
CA          1.9183515708        0.3684729356       -1.6639798422
HA          2.9303146893        0.1848536277       -2.0289657118
CB          1.0423078261        0.8398244613       -2.8348881227
HB1         1.4385946674        1.7635549591       -3.2564045605
HB2         0.0236978511        1.0107832205       -2.4900725803
HB3         1.0317371686        0.0774791877       -3.6154684898
C           1.9938770608        1.4183721357       -0.5329527536
O           1.5606157838        1.1553134070        0.5924077265
N           2.5361658949        2.6051255953       -0.8299052946
H           2.8575069500        2.7538038592       -1.7731868110
CH3         2.5902993287        3.7314239266        0.0995308038
HH31        1.5748668260        4.0753881196        0.3115636899
HH32        3.0577532341        3.4190127558        1.0353425423
HH33        3.1629192824        4.5523976962       -0.3335931853
          52
Energy of minimum      5=    -6.935298532     first found at step        7 after                 3163 function calls
HH31       -2.7119917633       -0.1337974208       -4.1331460699
CH3        -2.3886085940       -0.9145779639       -3.4460217062
HH32       -3.0192905663       -1.7927709332       -3.5696645682
HH33       -1.3507979663       -1.1725240563       -3.6476912910
C          -2.5181345756       -0.4054717540       -2.0293522891
O          -2.9890132767        0.7045748723       -1.8196545162
N          -2.0857667039       -1.2186620479       -1.0683010146
H          -1.6605257242       -2.0922554870       -1.3358155280
CA         -2.1344694146       -0.9247960411        0.3650864812
HA         -2.2932023361        0.1446693379        0.5067495022
CB         -3.3358258956       -1.6597739754        0.9741826941
HB1        -3.2131501120       -2.7374325823        0.8565239287
HB2        -3.4168599638       -1.4225766488        2.0353538934
HB3        -4.2521687248       -1.3441337857        0.4730592722
C          -0.8153373401       -1.3096036503        1.0645268823
O          -0.0749368924       -2.1581808668        0.5653880873
N          -0.5446234539       -0.7045916859        2.2278947068
H          -1.1853813843        0.0264032665        2.4989046096
CA          0.6512833977       -0.8516119101        3.0777390117
HA          0.5249930765       -0.1477886824        3.9019367540
CB          0.6754587562       -2.2488413534        3.7153112822
HB1        -0.2627387290       -2.4345158929        4.2392889520
HB2         0.8173595691       -3.0137921080        2.9510343678
HB3         1.4970093986       -2.3076685316        4.4304712580
C           1.9908541059       -0.4507853213        2.4205048402
O           2.6588557564        0.4516954936        2.9138885416
N           2.3585775078       -1.0581377206        1.2894986754
H           1.7484524788       -1.7873722045        0.9371436380
CA          3.4372663399       -0.5851591609        0.4121197257
HA          4.2529800812       -0.2031458203        1.0287324687
CB          3.9610819678       -1.7864384713       -0.3847466265
HB1         4.3078522804       -2.5623756568        0.2987305790
HB2         3.1701855929       -2.1878931274       -1.0197872132
HB3         4.7957466018       -1.4708919919       -1.0124963281
C           2.9901770200        0.5728486877       -0.5122822878
O           3.8014321014        1.1553453885       -1.2271270147
N           1.6935845659        0.8926685335       -0.5043839728
H           1.1039084499        0.3925105743        0.1420129815
CA          1.0575284781        2.0012689049       -1.2088139946
HA          1.7509542776        2.8422855358       -1.2622160173
CB          0.7243706098        1.5365418798       -2.6348875355
HB1         0.0461218610        0.6854692421       -2.5982140391
HB2         1.6407850254        1.2408468510       -3.1480510924
HB3         0.2564628504        2.3447379068       -3.1969185885
C          -0.1999191756        2.4579348777       -0.4358351539
O          -0.5545913045        1.8629517609        0.5857098595
N          -0.8749073920        3.5058450893       -0.9225762223
H          -0.5339965931        3.9346299301       -1.7681935763
CH3        -2.1334557944        3.9948835333       -0.3638033339
HH31       -2.0153077488        4.1898146281        0.7038578534
HH32       -2.4394622574        4.9129919859       -0.8667196780
HH33       -2.9088184677        3.2366485729       -0.4989511886
          52
Energy of minimum      6=    -4.093047952     first found at step       24 after                10435 function calls
HH31       -3.3172210408        0.8805177078       -2.8481893610
CH3        -2.4021651117        1.4419984321       -2.6727766937
HH32       -2.4237158390        2.3701313917       -3.2410505817
HH33       -1.5407505447        0.8476867708       -2.9732267408
C          -2.2890049798        1.7670246944       -1.2021834517
O          -2.2350359399        2.9351234028       -0.8369165948
N          -2.2673484333        0.7317279433       -0.3667087751
H          -2.2931963620       -0.1949218232       -0.7638501879
CA         -2.0482905720        0.8245792900        1.0771149534
HA         -1.3379270199        1.6284331550        1.2757134579
CB         -3.3750276793        1.1566815712        1.7744766722
HB1        -4.1078307889        0.3737513470        1.5736042397
HB2        -3.2166616430        1.2313595992        2.8505370311
HB3        -3.7574332337        2.1098889963        1.4067742534
C          -1.4612848696       -0.4954099623        1.6069163538
O          -1.9656256083       -1.5678779013        1.2701359843
N          -0.4039295123       -0.4143754925        2.4249898642
H          -0.0381417609        0.5176394676        2.5588673127
CA          0.5087641766       -1.5038675827        2.8188346693
HA          1.2958755622       -1.0424851621        3.4166980836
CB         -0.2042345082       -2.5014074199        3.7440771087
HB1        -0.9863758256       -3.0339771473        3.2022362397
HB2        -0.6491409136       -1.9718773876        4.5871617236
HB3         0.5178316408       -3.2260643575        4.1220086340
C           1.2410248542       -2.1639220230        1.6290663901
O           2.4711912861       -2.1850302486        1.5930349078
N           0.5080713512       -2.6006418144        0.6034097241
H          -0.4990382856       -2.5503252862        0.7119910432
CA          1.0157066159       -2.7031755940       -0.7592706719
HA          1.9708980042       -3.2306671568       -0.7501327611
CB          0.0189164801       -3.5249459773       -1.5884936177
HB1        -0.9589105708       -3.0401644841       -1.5882691071
HB2        -0.0767476906       -4.5260290896       -1.1665908750
HB3         0.3754921928       -3.6037285705       -2.6159870736
C           1.2495031803       -1.2788589690       -1.3068923330
O           0.3837515503       -0.6993831466       -1.9627117570
N           2.4110256534       -0.7063566060       -0.9708770311
H           2.9954869823       -1.2354974133       -0.3365507096
CA          2.7294813410        0.7170930630       -1.1243550101
HA          3.6883935200        0.8792699602       -0.6317268660
CB          2.9513500969        1.0304024646       -2.6171281904
HB1         3.6398338025        0.3023941762       -3.0481549331
HB2         3.3858461405        2.0234821291       -2.7324319395
HB3         2.0049731565        0.9866163584       -3.1582724563
C           1.7293227617        1.6407750480       -0.3810967380
O           1.2100767739        1.2712993265        0.6742166420
N           1.5242702732        2.8666615965       -0.8817321921
H           1.9653345472        3.0854364647       -1.7603493661
CH3         0.6816929595        3.8974219079       -0.2747158318
HH31        0.0043487315        3.4573761422        0.4597701058
HH32        0.0750932279        4.3812335826       -1.0424474420
HH33        1.3014818711        4.6449846270        0.2214538943
          52
Energy of minimum      7=    0.8670085140     first found at step        0 after                    1 function calls
HH31       -2.6054468121        1.7444519924       -3.2062570107
CH3        -2.6221063917        2.7203285859       -2.7243526141
HH32       -3.6510158888        3.0388281179       -2.5687311179
HH33       -2.1041845268        3.4469512298       -3.3485605188
C          -1.9212714217        2.6296921899       -1.3895162927
O          -0.9316764743        3.3176932085       -1.1695445635
N          -2.4281201299        1.7665597991       -0.5131016168
H          -3.2091088091        1.1926151235       -0.7940845399
CA         -1.8694820966        1.4911033831        0.8096331483
HA         -0.8190569079        1.7812426150        0.8174698928
CB         -2.6061204947        2.3434086962        1.8510033420
HB1        -3.6636883625        2.0758426248        1.8690651828
HB2        -2.5049895310        3.4001278831        1.5996787965
HB3        -2.1770274839        2.1723831906        2.8385938395
C          -1.9504107641       -0.0116432770        1.1369197255
O          -2.8657578814       -0.6897984578        0.6738507905
N          -1.0080481709       -0.4886278110        1.9593725910
H          -0.3025626843        0.1839627922        2.2254034239
CA         -0.6048190486       -1.8922868253        2.1171469378
HA          0.1775212577       -1.8826626462        2.8761153033
CB         -1.7354174730       -2.7531744097        2.6997448637
HB1        -2.1435997681       -2.2782926039        3.5923824637
HB2        -1.3487723788       -3.7378150779        2.9628120339
HB3        -2.5305140020       -2.8779845619        1.9635427851
C           0.0437929919       -2.4680369155        0.8394464596
O          -0.4996989397       -2.3664834790       -0.2580907247
N           1.2500812774       -3.0343689670        0.9895982886
H           1.5861859868       -3.1220828955        1.9340059314
CA          2.2674977146       -3.2280847976       -0.0615898781
HA          3.1623932543       -3.6000176703        0.4390265434
CB          1.8363254585       -4.3329003976       -1.0382280268
HB1         2.6550282621       -4.5489118984       -1.7256199131
HB2         1.5876165151       -5.2401887127       -0.4869237953
HB3         0.9680586062       -4.0156543967       -1.6166012426
C           2.7103188626       -1.9175819231       -0.7558299689
O           3.8994896354       -1.6111878813       -0.7796730108
N           1.7641331376       -1.1134807731       -1.2413369326
H           0.8101264542       -1.4515955176       -1.1808912938
CA          1.9384490702        0.3113427304       -1.5056916816
HA          2.9351530428        0.4775531463       -1.9177346792
CB          0.9047224666        0.7154597995       -2.5655876057
HB1         1.0618991046        0.1334010309       -3.4745281655
HB2        -0.1014911687        0.5249486417       -2.1901460321
HB3         1.0023362655        1.7750222745       -2.8040021040
C           1.8185553477        1.1498729855       -0.2098654435
O           1.4345177102        0.6442482987        0.8502710462
N           2.1293109135        2.4481978914       -0.3014285128
H           2.3864523121        2.8036931925       -1.2087014284
CH3         1.9966344845        3.4101662161        0.7906994074
HH31        2.3474331579        2.9680510074        1.7252632864
HH32        2.5832303806        4.3040554193        0.5751347827
HH33        0.9471239401        3.6916578302        0.9004378480
          52
Energy of minimum      8=     138.5756284     first found at step       74 after                34218 function calls
HH31       -2.0427606805       -2.1951938339       -3.4292222504
CH3        -1.5968058585       -2.2479026544       -2.4368963438
HH32       -1.8058963195       -3.2204495422       -1.9960828157
HH33       -0.5225847678       -2.0928218317       -2.5154389421
C          -2.1964378408       -1.1610842180       -1.5755375894
O          -2.9313325470       -0.3210043564       -2.0770120376
N          -1.8744952281       -1.1788838206       -0.2845575366
H          -1.2894318316       -1.9185478104        0.0619305058
CA         -2.3417912011       -0.1968546720        0.7250791507
HA         -2.6466786723        0.6868875640        0.1621528209
CB         -3.6418310330       -0.7315944727        1.3666479789
HB1        -4.3807457669       -0.9286642816        0.5887679144
HB2        -4.0449252762        0.0120117103        2.0541975780
HB3        -3.4460249305       -1.6552125933        1.9130644444
C          -1.3149996508        0.3962967663        1.7682354862
O          -1.0321163715       -0.7832567287        1.9930074445
N          -0.3263959042        0.7031322679        2.6590866072
H          -0.4080834935        1.6658658299        2.9392582965
CA          0.9830258569        0.1403008106        3.1326372871
HA          1.5114356452        0.9803494846        3.5849001882
CB          0.7872621426       -0.8749755192        4.2738637690
HB1         0.3125023941       -1.7840217000        3.9041824311
HB2         0.1620953871       -0.4378021107        5.0527264187
HB3         1.7570373824       -1.1335620794        4.7004061987
C           1.9342688013       -0.3501571933        2.0206725515
O           3.0150341325        0.2057505765        1.8503483993
N           1.5230693555       -1.3442327392        1.2312728977
H           0.6020408010       -1.7130869764        1.4322847679
CA          2.2271830606       -1.7931332963        0.0261494865
HA          3.2900623039       -1.8815090847        0.2590079468
CB          1.7006797281       -3.1859988055       -0.3414722101
HB1         0.6343361971       -3.1415612762       -0.5601164661
HB2         2.2308102196       -3.5542857010       -1.2212153893
HB3         1.8719883449       -3.8758675489        0.4858735550
C           2.1123782629       -0.7972411569       -1.1515441985
O           2.8438543016       -0.9125743144       -2.1308580405
N           1.2052283193        0.1801056927       -1.0562733856
H           0.6438117234        0.2151204165       -0.2188135412
CA          1.1282006813        1.3548938474       -1.9219055490
HA          2.1396303651        1.6318585466       -2.2244992996
CB          0.3175102555        1.0187606106       -3.1817387532
HB1        -0.7194898630        0.8190492553       -2.9169883179
HB2         0.3453872640        1.8586091705       -3.8759288049
HB3         0.7409323652        0.1434902734       -3.6763397335
C           0.5150661031        2.5438066587       -1.1539696612
O          -0.1078910336        2.3605256196       -0.1043290019
N           0.6858756035        3.7617965285       -1.6822951784
H           1.1996931700        3.8309959487       -2.5470957493
CH3         0.1637553424        4.9926212182       -1.0916766764
HH31        0.4263030900        5.8505635420       -1.7123306249
HH32       -0.9231980626        4.9290514171       -1.0085162310
HH33        0.5834577333        5.1296365624       -0.0930997969
