    38
Energy=    -169.355866230312    
AX        0.7923901053        0.4181165956        -1.282778099    
AX         1.298567920       -0.7339994626         1.294574333    
AX       -0.2541336266        -1.480562437        0.5181429216    
AX         1.207566224        -1.258362423       -0.7630811017    
AX        -1.528330573       -0.1974551420        0.2701598971    
AX        0.1853696510E-01     1.277979676        -1.580346741    
AX         1.315271080        0.9691466873E-01    0.5768360577    
AX        -1.172737447       -0.1240928208         1.344466954    
AX       -0.4174055536        0.6169132911         1.070840485    
AX        0.6992624519         1.738225253       -0.2591357156    
AX       -0.3236428651         1.864440329       -0.6653557954    
AX       -0.9243947218       -0.9910093476       -0.2287605104    
AX        0.8750870298         1.132113575        0.7336540871    
AX       -0.5969690255       -0.8704792193        -1.272474555    
AX        -1.164287027         1.558662798       -0.1091268808E-01
AX       -0.9324747084        0.9950956732       -0.9755291667    
AX        -1.474307357        0.8020057091        0.7746304966    
AX        0.8317122836        -1.739781576        0.2047044653    
AX        -1.202973078       -0.6844697538E-01   -0.8030085881    
AX         1.156880933        0.7596339174       -0.2877796033    
AX       -0.2651434507       -0.8374052375         1.453050106    
AX        0.5617738289        -1.543200928         1.260268235    
AX        0.4618757160       -0.6233254454        -1.349234200    
AX         1.938653333       -0.3690316360E-01   -0.3568192730    
AX       -0.1369856681         1.380268840        0.3437106846    
AX        0.1508827553        -1.210661788       -0.4614807892    
AX        0.9116879581E-01    0.8538344090       -0.5985557160    
AX         1.569975728       -0.9161374322        0.2252920263    
AX       -0.3048115402        0.2172991380        -1.470112262    
AX        0.4586121875        0.8026795180E-03     1.315498186    
AX        -1.804488182        0.7129366187       -0.3056128262    
AX        -1.225185776        -1.106278260        0.8531341788    
AX       -0.4807744273       -0.3579523235        0.5293905942    
AX        0.5230623449       -0.7248167711        0.5009201590    
AX        0.3020060054        0.3392432972        0.2977646853    
AX        0.8843659324       -0.2821575306       -0.4049126458    
AX       -0.1736698532       -0.2051186604       -0.4988136813    
AX       -0.7549367389        0.5436604765        0.7665406198E-02
    38
Energy=    -169.355866230309    
AX        0.7923900918        0.4181165782        -1.282778089    
AX         1.298567911       -0.7339994257         1.294574392    
AX       -0.2541336056        -1.480562457        0.5181429287    
AX         1.207566239        -1.258362416       -0.7630810818    
AX        -1.528330594       -0.1974551589        0.2701598755    
AX        0.1853700931E-01     1.277979696        -1.580346728    
AX         1.315271093        0.9691465970E-01    0.5768360425    
AX        -1.172737441       -0.1240928566         1.344466935    
AX       -0.4174055633        0.6169132674         1.070840467    
AX        0.6992624585         1.738225242       -0.2591357050    
AX       -0.3236428579         1.864440332       -0.6653557689    
AX       -0.9243947187       -0.9910093700       -0.2287605419    
AX        0.8750870296         1.132113557        0.7336540876    
AX       -0.5969690408       -0.8704792020        -1.272474566    
AX        -1.164287029         1.558662800       -0.1091266973E-01
AX       -0.9324746969        0.9950956891       -0.9755291676    
AX        -1.474307377        0.8020056840        0.7746304920    
AX        0.8317122704        -1.739781575        0.2047044652    
AX        -1.202973101       -0.6844697453E-01   -0.8030086079    
AX         1.156880947        0.7596338869       -0.2877796163    
AX       -0.2651433393       -0.8374051743         1.453050043    
AX        0.5617738747        -1.543200965         1.260268243    
AX        0.4618756984       -0.6233254555        -1.349234199    
AX         1.938653280       -0.3690323643E-01   -0.3568193147    
AX       -0.1369856770         1.380268823        0.3437106967    
AX        0.1508827409        -1.210661720       -0.4614807771    
AX        0.9116879001E-01    0.8538344410       -0.5985557174    
AX         1.569975708       -0.9161374456        0.2252920717    
AX       -0.3048115477        0.2172991602        -1.470112296    
AX        0.4586122574        0.8028029095E-03     1.315498204    
AX        -1.804488188        0.7129366333       -0.3056128313    
AX        -1.225185761        -1.106278287        0.8531341702    
AX       -0.4807744220       -0.3579523296        0.5293905550    
AX        0.5230623250       -0.7248167666        0.5009202438    
AX        0.3020059749        0.3392432884        0.2977647048    
AX        0.8843659073       -0.2821575472       -0.4049126178    
AX       -0.1736698859       -0.2051186912       -0.4988137425    
AX       -0.7549367591        0.5436605140        0.7665419266E-02
    38
Energy=    -169.355866230311    
AX        0.7923901158        0.4181166195        -1.282778093    
AX         1.298567948       -0.7339995170         1.294574254    
AX       -0.2541336664        -1.480562401        0.5181429231    
AX         1.207566207        -1.258362455       -0.7630811402    
AX        -1.528330557       -0.1974551254        0.2701599203    
AX        0.1853689783E-01     1.277979657        -1.580346765    
AX         1.315271082        0.9691467040E-01    0.5768360610    
AX        -1.172737458       -0.1240927725         1.344466970    
AX       -0.4174055278        0.6169132975         1.070840503    
AX        0.6992624389         1.738225269       -0.2591357053    
AX       -0.3236428594         1.864440311       -0.6653558126    
AX       -0.9243947176       -0.9910093239       -0.2287604815    
AX        0.8750870113         1.132113587        0.7336541339    
AX       -0.5969689965       -0.8704792339        -1.272474536    
AX        -1.164287019         1.558662784       -0.1091272697E-01
AX       -0.9324747254        0.9950956583       -0.9755291788    
AX        -1.474307332        0.8020057496        0.7746304946    
AX        0.8317123006        -1.739781571        0.2047044755    
AX        -1.202973052       -0.6844698268E-01   -0.8030085809    
AX         1.156880929        0.7596339519       -0.2877795760    
AX       -0.2651435718       -0.8374052719         1.453050173    
AX        0.5617737561        -1.543200884         1.260268233    
AX        0.4618757441       -0.6233254445        -1.349234212    
AX         1.938653383       -0.3690306282E-01   -0.3568192293    
AX       -0.1369856711         1.380268827        0.3437106786    
AX        0.1508827566        -1.210661841       -0.4614808138    
AX        0.9116878699E-01    0.8538343974       -0.5985557336    
AX         1.569975760       -0.9161374151        0.2252919450    
AX       -0.3048115197        0.2172991148        -1.470112230    
AX        0.4586121536        0.8025726113E-03     1.315498168    
AX        -1.804488183        0.7129365987       -0.3056128219    
AX        -1.225185825        -1.106278227        0.8531342120    
AX       -0.4807744111       -0.3579523164        0.5293906413    
AX        0.5230623615       -0.7248167743        0.5009200798    
AX        0.3020060278        0.3392432940        0.2977646873    
AX        0.8843659787       -0.2821575094       -0.4049126812    
AX       -0.1736698130       -0.2051186834       -0.4988136401    
AX       -0.7549367320        0.5436604528        0.7665406027E-02
    38
Energy=    -169.355866230310    
AX        0.7923901168        0.4181166614        -1.282778100    
AX         1.298567954       -0.7339995757         1.294574169    
AX       -0.2541336938        -1.480562363        0.5181429209    
AX         1.207566186        -1.258362488       -0.7630811742    
AX        -1.528330539       -0.1974550990        0.2701599467    
AX        0.1853681257E-01     1.277979620        -1.580346802    
AX         1.315271093        0.9691466775E-01    0.5768360666    
AX        -1.172737461       -0.1240927274         1.344466992    
AX       -0.4174054981        0.6169133131         1.070840521    
AX        0.6992624178         1.738225284       -0.2591357084    
AX       -0.3236428670         1.864440282       -0.6653558446    
AX       -0.9243947043       -0.9910092863       -0.2287604497    
AX        0.8750869882         1.132113596        0.7336541918    
AX       -0.5969689611       -0.8704792650        -1.272474504    
AX        -1.164287017         1.558662780       -0.1091275602E-01
AX       -0.9324747451        0.9950956402       -0.9755291890    
AX        -1.474307303        0.8020057902        0.7746304980    
AX        0.8317123244        -1.739781570        0.2047044890    
AX        -1.202973011       -0.6844699229E-01   -0.8030085743    
AX         1.156880939        0.7596339897       -0.2877795500    
AX       -0.2651437218       -0.8374053181         1.453050242    
AX        0.5617736659        -1.543200840         1.260268238    
AX        0.4618757667       -0.6233254312        -1.349234220    
AX         1.938653434       -0.3690296782E-01   -0.3568191810    
AX       -0.1369856765         1.380268821        0.3437106743    
AX        0.1508827535        -1.210661889       -0.4614808433    
AX        0.9116878068E-01    0.8538343928       -0.5985557385    
AX         1.569975810       -0.9161374048        0.2252918633    
AX       -0.3048115073        0.2172990834        -1.470112187    
AX        0.4586120859        0.8024340622E-03     1.315498143    
AX        -1.804488175        0.7129365839       -0.3056128222    
AX        -1.225185860        -1.106278191        0.8531342341    
AX       -0.4807743783       -0.3579522976        0.5293906958    
AX        0.5230623812       -0.7248167870        0.5009199834    
AX        0.3020060526        0.3392433039        0.2977646925    
AX        0.8843660453       -0.2821574789       -0.4049127287    
AX       -0.1736697708       -0.2051187181       -0.4988136001    
AX       -0.7549367159        0.5436604465        0.7665411991E-02
    38
Energy=    -169.355866230308    
AX        0.7923901217        0.4181166921        -1.282778123    
AX         1.298567942       -0.7339996098         1.294574111    
AX       -0.2541336983        -1.480562343        0.5181429128    
AX         1.207566172        -1.258362495       -0.7630811882    
AX        -1.528330523       -0.1974550743        0.2701599703    
AX        0.1853675931E-01     1.277979584        -1.580346821    
AX         1.315271092        0.9691467318E-01    0.5768360836    
AX        -1.172737460       -0.1240926989         1.344467018    
AX       -0.4174054831        0.6169133444         1.070840530    
AX        0.6992624048         1.738225295       -0.2591357357    
AX       -0.3236428841         1.864440265       -0.6653558841    
AX       -0.9243946966       -0.9910092528       -0.2287604247    
AX        0.8750869881         1.132113616        0.7336541952    
AX       -0.5969689397       -0.8704792913        -1.272474477    
AX        -1.164287017         1.558662783       -0.1091276266E-01
AX       -0.9324747558        0.9950956240       -0.9755291844    
AX        -1.474307280        0.8020058113        0.7746305045    
AX        0.8317123457        -1.739781578        0.2047044913    
AX        -1.202972976       -0.6844699806E-01   -0.8030085589    
AX         1.156880944        0.7596340144       -0.2877795444    
AX       -0.2651438527       -0.8374053902         1.453050298    
AX        0.5617736119        -1.543200806         1.260268234    
AX        0.4618757726       -0.6233254122        -1.349234213    
AX         1.938653477       -0.3690290674E-01   -0.3568191342    
AX       -0.1369856733         1.380268838        0.3437106621    
AX        0.1508827503        -1.210661925       -0.4614808642    
AX        0.9116878753E-01    0.8538343854       -0.5985557341    
AX         1.569975845       -0.9161373977        0.2252918233    
AX       -0.3048115067        0.2172990572        -1.470112144    
AX        0.4586119816        0.8022873474E-03     1.315498117    
AX        -1.804488163        0.7129365759       -0.3056128198    
AX        -1.225185861        -1.106278165        0.8531342330    
AX       -0.4807743523       -0.3579522807        0.5293907466    
AX        0.5230623929       -0.7248168016        0.5009198926    
AX        0.3020060747        0.3392433217        0.2977646993    
AX        0.8843660950       -0.2821574513       -0.4049127672    
AX       -0.1736697371       -0.2051187407       -0.4988135593    
AX       -0.7549366963        0.5436604487        0.7665418744E-02
    38
Energy=    -169.355866230307    
AX        0.7923901302        0.4181167089        -1.282778144    
AX         1.298567926       -0.7339996268         1.294574075    
AX       -0.2541336973        -1.480562333        0.5181429039    
AX         1.207566164        -1.258362489       -0.7630811952    
AX        -1.528330511       -0.1974550574        0.2701599895    
AX        0.1853672921E-01     1.277979562        -1.580346832    
AX         1.315271088        0.9691468168E-01    0.5768361019    
AX        -1.172737456       -0.1240926798         1.344467041    
AX       -0.4174054763        0.6169133755         1.070840532    
AX        0.6992623988         1.738225302       -0.2591357692    
AX       -0.3236428980         1.864440256       -0.6653559162    
AX       -0.9243946923       -0.9910092277       -0.2287604071    
AX        0.8750869969         1.132113641        0.7336541754    
AX       -0.5969689266       -0.8704793046        -1.272474456    
AX        -1.164287016         1.558662784       -0.1091276327E-01
AX       -0.9324747638        0.9950956125       -0.9755291770    
AX        -1.474307266        0.8020058229        0.7746305111    
AX        0.8317123615        -1.739781588        0.2047044865    
AX        -1.202972951       -0.6844700160E-01   -0.8030085440    
AX         1.156880944        0.7596340307       -0.2877795456    
AX       -0.2651439477       -0.8374054597         1.453050337    
AX        0.5617735834        -1.543200785         1.260268221    
AX        0.4618757750       -0.6233253978        -1.349234204    
AX         1.938653507       -0.3690286802E-01   -0.3568190941    
AX       -0.1369856658         1.380268856        0.3437106466    
AX        0.1508827473        -1.210661950       -0.4614808800    
AX        0.9116879466E-01    0.8538343741       -0.5985557214    
AX         1.569975866       -0.9161373920        0.2252918044    
AX       -0.3048115069        0.2172990389        -1.470112109    
AX        0.4586118878        0.8021708148E-03     1.315498099    
AX        -1.804488155        0.7129365706       -0.3056128147    
AX        -1.225185856        -1.106278147        0.8531342299    
AX       -0.4807743346       -0.3579522713        0.5293907883    
AX        0.5230623965       -0.7248168178        0.5009198268    
AX        0.3020060904        0.3392433471        0.2977647055    
AX        0.8843661324       -0.2821574322       -0.4049127965    
AX       -0.1736697191       -0.2051187587       -0.4988135301    
AX       -0.7549366792        0.5436604524        0.7665424039E-02
    38
Energy=    -169.355866230305    
AX        0.7923901379        0.4181167143        -1.282778159    
AX         1.298567917       -0.7339996321         1.294574057    
AX       -0.2541336943        -1.480562330        0.5181428980    
AX         1.207566162        -1.258362479       -0.7630811966    
AX        -1.528330504       -0.1974550500        0.2701600011    
AX        0.1853671693E-01     1.277979554        -1.580346841    
AX         1.315271084        0.9691468961E-01    0.5768361141    
AX        -1.172737453       -0.1240926693         1.344467053    
AX       -0.4174054730        0.6169133970         1.070840533    
AX        0.6992623978         1.738225306       -0.2591357928    
AX       -0.3236429049         1.864440253       -0.6653559339    
AX       -0.9243946888       -0.9910092136       -0.2287603968    
AX        0.8750870042         1.132113659        0.7336541511    
AX       -0.5969689214       -0.8704793072        -1.272474443    
AX        -1.164287015         1.558662786       -0.1091276234E-01
AX       -0.9324747688        0.9950956066       -0.9755291709    
AX        -1.474307261        0.8020058290        0.7746305168    
AX        0.8317123700        -1.739781594        0.2047044821    
AX        -1.202972932       -0.6844700475E-01   -0.8030085326    
AX         1.156880942        0.7596340412       -0.2877795488    
AX       -0.2651440042       -0.8374055087         1.453050358    
AX        0.5617735718        -1.543200773         1.260268211    
AX        0.4618757759       -0.6233253903        -1.349234198    
AX         1.938653522       -0.3690284866E-01   -0.3568190682    
AX       -0.1369856577         1.380268864        0.3437106339    
AX        0.1508827467        -1.210661968       -0.4614808890    
AX        0.9116879815E-01    0.8538343600       -0.5985556975    
AX         1.569975875       -0.9161373875        0.2252917968    
AX       -0.3048115076        0.2172990265        -1.470112085    
AX        0.4586118269        0.8020989093E-03     1.315498090    
AX        -1.804488152        0.7129365687       -0.3056128100    
AX        -1.225185853        -1.106278138        0.8531342283    
AX       -0.4807743277       -0.3579522723        0.5293908170    
AX        0.5230623942       -0.7248168362        0.5009197923    
AX        0.3020061002        0.3392433817        0.2977647081    
AX        0.8843661651       -0.2821574221       -0.4049128178    
AX       -0.1736697268       -0.2051187656       -0.4988135219    
AX       -0.7549366623        0.5436604535        0.7665422953E-02
    38
Energy=    -169.355866230304    
AX        0.7923901244        0.4181167619        -1.282778204    
AX         1.298567968       -0.7339996819         1.294573987    
AX       -0.2541336992        -1.480562338        0.5181428968    
AX         1.207566134        -1.258362493       -0.7630811793    
AX        -1.528330463       -0.1974550259        0.2701600087    
AX        0.1853667047E-01     1.277979493        -1.580346859    
AX         1.315271063        0.9691468215E-01    0.5768361006    
AX        -1.172737471       -0.1240926421         1.344467044    
AX       -0.4174054450        0.6169134184         1.070840544    
AX        0.6992623810         1.738225346       -0.2591357498    
AX       -0.3236429115         1.864440275       -0.6653559456    
AX       -0.9243946608       -0.9910092140       -0.2287603621    
AX        0.8750870017         1.132113665        0.7336541706    
AX       -0.5969689281       -0.8704793586        -1.272474413    
AX        -1.164287012         1.558662801       -0.1091275860E-01
AX       -0.9324747466        0.9950955973       -0.9755291597    
AX        -1.474307220        0.8020058565        0.7746305097    
AX        0.8317123950        -1.739781601        0.2047045484    
AX        -1.202972919       -0.6844702288E-01   -0.8030085010    
AX         1.156880957        0.7596340782       -0.2877795576    
AX       -0.2651442007       -0.8374055936         1.453050436    
AX        0.5617734960        -1.543200675         1.260268253    
AX        0.4618757564       -0.6233253703        -1.349234190    
AX         1.938653592       -0.3690277750E-01   -0.3568190485    
AX       -0.1369856750         1.380268904        0.3437106434    
AX        0.1508827465        -1.210662022       -0.4614809064    
AX        0.9116881275E-01    0.8538343866       -0.5985557368    
AX         1.569975907       -0.9161373596        0.2252917447    
AX       -0.3048115450        0.2172989775        -1.470112078    
AX        0.4586117359        0.8019156136E-03     1.315498041    
AX        -1.804488114        0.7129365753       -0.3056128153    
AX        -1.225185872        -1.106278134        0.8531342012    
AX       -0.4807742826       -0.3579522552        0.5293908655    
AX        0.5230624201       -0.7248168323        0.5009196668    
AX        0.3020060993        0.3392433550        0.2977646966    
AX        0.8843661993       -0.2821573549       -0.4049128596    
AX       -0.1736696580       -0.2051187939       -0.4988134722    
AX       -0.7549366356        0.5436604567        0.7665439363E-02
    38
Energy=    -169.355866230302    
AX        0.7923901051        0.4181167869        -1.282778239    
AX         1.298568039       -0.7339997082         1.294573943    
AX       -0.2541337018        -1.480562357        0.5181429058    
AX         1.207566113        -1.258362501       -0.7630811518    
AX        -1.528330428       -0.1974550216        0.2701600017    
AX        0.1853665480E-01     1.277979460        -1.580346883    
AX         1.315271042        0.9691467696E-01    0.5768360718    
AX        -1.172737492       -0.1240926296         1.344467011    
AX       -0.4174054201        0.6169134184         1.070840554    
AX        0.6992623755         1.738225382       -0.2591356796    
AX       -0.3236428986         1.864440308       -0.6653559268    
AX       -0.9243946293       -0.9910092342       -0.2287603386    
AX        0.8750869897         1.132113656        0.7336541808    
AX       -0.5969689501       -0.8704793883        -1.272474394    
AX        -1.164287006         1.558662817       -0.1091275676E-01
AX       -0.9324747202        0.9950956002       -0.9755291523    
AX        -1.474307196        0.8020058785        0.7746305008    
AX        0.8317124080        -1.739781600        0.2047046208    
AX        -1.202972913       -0.6844704179E-01   -0.8030084760    
AX         1.156880969        0.7596341146       -0.2877795697    
AX       -0.2651443401       -0.8374056424         1.453050486    
AX        0.5617734468        -1.543200581         1.260268302    
AX        0.4618757351       -0.6233253663        -1.349234189    
AX         1.938653633       -0.3690273657E-01   -0.3568190543    
AX       -0.1369856892         1.380268920        0.3437106595    
AX        0.1508827498        -1.210662066       -0.4614809117    
AX        0.9116882053E-01    0.8538344072       -0.5985557417    
AX         1.569975922       -0.9161373325        0.2252917044    
AX       -0.3048115826        0.2172989372        -1.470112088    
AX        0.4586117064        0.8018081966E-03     1.315498009    
AX        -1.804488084        0.7129365890       -0.3056128203    
AX        -1.225185905        -1.106278146        0.8531341800    
AX       -0.4807742639       -0.3579522660        0.5293908907    
AX        0.5230624365       -0.7248168446        0.5009196013    
AX        0.3020060986        0.3392433698        0.2977646854    
AX        0.8843662389       -0.2821573075       -0.4049128990    
AX       -0.1736696555       -0.2051188110       -0.4988134775    
AX       -0.7549366075        0.5436604519        0.7665442126E-02
    38
Energy=    -169.355866230301    
AX        0.7923900941        0.4181167935        -1.282778238    
AX         1.298568070       -0.7339997197         1.294573940    
AX       -0.2541337041        -1.480562361        0.5181429132    
AX         1.207566106        -1.258362516       -0.7630811421    
AX        -1.528330421       -0.1974550258        0.2701599899    
AX        0.1853665465E-01     1.277979455        -1.580346890    
AX         1.315271042        0.9691466507E-01    0.5768360505    
AX        -1.172737503       -0.1240926341         1.344466989    
AX       -0.4174054119        0.6169133980         1.070840558    
AX        0.6992623710         1.738225389       -0.2591356324    
AX       -0.3236428922         1.864440323       -0.6653559052    
AX       -0.9243946208       -0.9910092497       -0.2287603396    
AX        0.8750869718         1.132113626        0.7336542149    
AX       -0.5969689587       -0.8704793977        -1.272474396    
AX        -1.164287009         1.558662821       -0.1091275725E-01
AX       -0.9324747083        0.9950956048       -0.9755291568    
AX        -1.474307191        0.8020058820        0.7746304939    
AX        0.8317124038        -1.739781590        0.2047046522    
AX        -1.202972920       -0.6844704822E-01   -0.8030084777    
AX         1.156880973        0.7596341171       -0.2877795655    
AX       -0.2651443355       -0.8374056067         1.453050484    
AX        0.5617734332        -1.543200560         1.260268329    
AX        0.4618757288       -0.6233253683        -1.349234195    
AX         1.938653633       -0.3690273872E-01   -0.3568190824    
AX       -0.1369857025         1.380268914        0.3437106771    
AX        0.1508827526        -1.210662069       -0.4614809060    
AX        0.9116881828E-01    0.8538344224       -0.5985557502    
AX         1.569975921       -0.9161373277        0.2252916925    
AX       -0.3048115952        0.2172989287        -1.470112110    
AX        0.4586117578        0.8018401359E-03     1.315498007    
AX        -1.804488078        0.7129365954       -0.3056128292    
AX        -1.225185918        -1.106278155        0.8531341734    
AX       -0.4807742710       -0.3579522719        0.5293908782    
AX        0.5230624450       -0.7248168386        0.5009196119    
AX        0.3020060937        0.3392433611        0.2977646753    
AX        0.8843662391       -0.2821573019       -0.4049128980    
AX       -0.1736696612       -0.2051188065       -0.4988134970    
AX       -0.7549366065        0.5436604500        0.7665438586E-02
    38
Energy=    -169.355866230285    
AX        0.7923900736        0.4181168003        -1.282778178    
AX         1.298568105       -0.7339997573         1.294573990    
AX       -0.2541337135        -1.480562342        0.5181429307    
AX         1.207566094        -1.258362592       -0.7630811411    
AX        -1.528330430       -0.1974550493        0.2701599500    
AX        0.1853666339E-01     1.277979469        -1.580346889    
AX         1.315271068        0.9691460772E-01    0.5768359826    
AX        -1.172737519       -0.1240926799         1.344466923    
AX       -0.4174054121        0.6169132979         1.070840566    
AX        0.6992623447         1.738225361       -0.2591355046    
AX       -0.3236428954         1.864440344       -0.6653558352    
AX       -0.9243946280       -0.9910092798       -0.2287603743    
AX        0.8750868837         1.132113457        0.7336543853    
AX       -0.5969689529       -0.8704794062        -1.272474430    
AX        -1.164287039         1.558662820       -0.1091276075E-01
AX       -0.9324746920        0.9950956176       -0.9755291925    
AX        -1.474307193        0.8020058648        0.7746304685    
AX        0.8317123635        -1.739781532        0.2047047020    
AX        -1.202972954       -0.6844705468E-01   -0.8030085259    
AX         1.156880970        0.7596340536       -0.2877795097    
AX       -0.2651440979       -0.8374053305         1.453050396    
AX        0.5617734266        -1.543200606         1.260268387    
AX        0.4618757268       -0.6233253746        -1.349234228    
AX         1.938653576       -0.3690280689E-01   -0.3568192208    
AX       -0.1369857517         1.380268868        0.3437107432    
AX        0.1508827576        -1.210662004       -0.4614808715    
AX        0.9116880362E-01    0.8538344684       -0.5985557821    
AX         1.569975885       -0.9161373457        0.2252916903    
AX       -0.3048116004        0.2172989344        -1.470112191    
AX        0.4586120677        0.8021713987E-03     1.315498052    
AX        -1.804488087        0.7129366057       -0.3056128720    
AX        -1.225185908        -1.106278161        0.8531341604    
AX       -0.4807744229       -0.3579523072        0.5293908189    
AX        0.5230625145       -0.7248168055        0.5009197509    
AX        0.3020061331        0.3392433425        0.2977646372    
AX        0.8843661933       -0.2821573400       -0.4049128179    
AX       -0.1736696867       -0.2051187763       -0.4988136299    
AX       -0.7549366655        0.5436604669        0.7665420551E-02
    38
Energy=    -169.355866230292    
AX        0.7923900384        0.4181168063        -1.282778366    
AX         1.298568196       -0.7339996213         1.294573797    
AX       -0.2541337237        -1.480562432        0.5181429429    
AX         1.207566107        -1.258362447       -0.7630811141    
AX        -1.528330336       -0.1974550197        0.2701600294    
AX        0.1853668600E-01     1.277979422        -1.580346910    
AX         1.315270955        0.9691477467E-01    0.5768360485    
AX        -1.172737526       -0.1240925860         1.344466983    
AX       -0.4174054149        0.6169134982         1.070840596    
AX        0.6992624283         1.738225503       -0.2591356949    
AX       -0.3236428047         1.864440316       -0.6653559278    
AX       -0.9243945492       -0.9910092535       -0.2287602392    
AX        0.8750871199         1.132113908        0.7336539146    
AX       -0.5969690224       -0.8704794085        -1.272474335    
AX        -1.164286922         1.558662832       -0.1091276369E-01
AX       -0.9324746743        0.9950956174       -0.9755290978    
AX        -1.474307188        0.8020059424        0.7746305026    
AX        0.8317124908        -1.739781650        0.2047046874    
AX        -1.202972873       -0.6844704442E-01   -0.8030083951    
AX         1.156881035        0.7596342422       -0.2877797094    
AX       -0.2651449715       -0.8374060901         1.453050680    
AX        0.5617734117        -1.543200275         1.260268353    