    38
Energy=    -170.956894617602    
AX        0.8334729743        0.4685650281        -1.348962050    
AX         1.481498094        -1.016063310        0.6897843728    
AX       -0.2812934567        -1.438804560        0.5930520925    
AX         1.187645587        -1.055264525       -0.3984355844    
AX        -1.550156530       -0.2030025341        0.2383279304    
AX        0.3735487020E-01     1.234456328        -1.563350559    
AX         1.215688996        0.5048750703E-01    0.7549208935    
AX        -1.297204355       -0.1185920661         1.328150404    
AX       -0.5078559474        0.6234944934         1.116465659    
AX        0.7772303352         1.537128937       -0.2210144623    
AX       -0.2371461994         1.805260715       -0.6395182404    
AX       -0.9265324419        -1.010401004       -0.2058299518    
AX        0.8694926389         1.129778502        0.8257555818    
AX       -0.5316058096       -0.9031253205        -1.244767440    
AX        -1.147302571         1.544242299       -0.4512493143E-01
AX       -0.8886410360        0.9669230346       -0.9788836626    
AX        -1.529717829        0.8061752594        0.7266485445    
AX        0.7485623239        -1.770330741        0.3457972863    
AX        -1.154004177       -0.9697054029E-01   -0.8033616070    
AX         1.548559551        0.7858973482       -0.5381124406E-02
AX       -0.4974856586       -0.8974736226         1.551720284    
AX        0.5541846641        -1.223429931         1.309225688    
AX        0.5417286472       -0.6079649901        -1.196812602    
AX         1.618221368       -0.3052195318        -1.121402414    
AX       -0.1437113612         1.374467819        0.3748860017    
AX        0.1132132376        -1.331169772       -0.4490974892    
AX        0.1169998732        0.7685855848       -0.5807565989    
AX         1.908342045       -0.2843254258       -0.3972404947E-01
AX       -0.2470042140        0.1602168579        -1.417311309    
AX        0.2845419377       -0.1482570171         1.337988904    
AX        -1.786997655        0.6991635936       -0.3630455084    
AX        -1.318356647        -1.115720882        0.8288238989    
AX       -0.5249329549       -0.3668973418        0.5994954275    
AX        0.4874765936       -0.6887128418        0.3663209901    
AX        0.2503846004        0.3700474577        0.3935497467    
AX        0.9004487576        0.5550077832E-02   -0.3617350852    
AX       -0.1485426824       -0.2716201344       -0.4149375804    
AX       -0.7565555690        0.5229052491        0.1853854273E-01
    38
Energy=    -170.956894617601    
AX        0.8334729680        0.4685650224        -1.348962058    
AX         1.481498102        -1.016063316        0.6897843603    
AX       -0.2812934508        -1.438804552        0.5930520985    
AX         1.187645587        -1.055264529       -0.3984355893    
AX        -1.550156531       -0.2030025304        0.2383279260    
AX        0.3735486027E-01     1.234456326        -1.563350565    
AX         1.215688993        0.5048750229E-01    0.7549208919    
AX        -1.297204367       -0.1185920652         1.328150404    
AX       -0.5078559565        0.6234944942         1.116465665    
AX        0.7772303384         1.537128937       -0.2210144443    
AX       -0.2371461999         1.805260713       -0.6395182396    
AX       -0.9265324394        -1.010401000       -0.2058299486    
AX        0.8694926341         1.129778493        0.8257556003    
AX       -0.5316058104       -0.9031253241        -1.244767443    
AX        -1.147302570         1.544242298       -0.4512492782E-01
AX       -0.8886410357        0.9669230331       -0.9788836616    
AX        -1.529717835        0.8061752567        0.7266485403    
AX        0.7485623235        -1.770330740        0.3457972882    
AX        -1.154004176       -0.9697053813E-01   -0.8033616046    
AX         1.548559551        0.7858973452       -0.5381114201E-02
AX       -0.4974856596       -0.8974736122         1.551720292    
AX        0.5541846683        -1.223429922         1.309225689    
AX        0.5417286479       -0.6079649936        -1.196812605    
AX         1.618221368       -0.3052195374        -1.121402420    
AX       -0.1437113618         1.374467823        0.3748860047    
AX        0.1132132388        -1.331169775       -0.4490974836    
AX        0.1169998782        0.7685855811       -0.5807566007    
AX         1.908342048       -0.2843254232       -0.3972405597E-01
AX       -0.2470042164        0.1602168596        -1.417311311    
AX        0.2845419436       -0.1482570128         1.337988906    
AX        -1.786997652        0.6991635967       -0.3630455180    
AX        -1.318356642        -1.115720882        0.8288238927    
AX       -0.5249329520       -0.3668973405        0.5994954171    
AX        0.4874765911       -0.6887128402        0.3663209892    
AX        0.2503846195        0.3700474506        0.3935497354    
AX        0.9004487559        0.5550086915E-02   -0.3617350817    
AX       -0.1485426884       -0.2716201244       -0.4149375648    
AX       -0.7565555725        0.5229052393        0.1853853599E-01
    38
Energy=    -170.956894617601    
AX        0.8334729750        0.4685650392        -1.348962042    
AX         1.481498068        -1.016063298        0.6897843947    
AX       -0.2812934612        -1.438804566        0.5930520684    
AX         1.187645585        -1.055264505       -0.3984355769    
AX        -1.550156531       -0.2030025329        0.2383279487    
AX        0.3735487931E-01     1.234456331        -1.563350566    
AX         1.215688991        0.5048751793E-01    0.7549209151    
AX        -1.297204314       -0.1185920600         1.328150422    
AX       -0.5078559190        0.6234945068         1.116465660    
AX        0.7772303469         1.537128890       -0.2210145075    
AX       -0.2371462054         1.805260709       -0.6395182562    
AX       -0.9265324529        -1.010401009       -0.2058299627    
AX        0.8694926281         1.129778528        0.8257555530    
AX       -0.5316058056       -0.9031253128        -1.244767439    
AX        -1.147302574         1.544242292       -0.4512494433E-01
AX       -0.8886410499        0.9669230313       -0.9788836751    
AX        -1.529717816        0.8061752702        0.7266485661    
AX        0.7485623233        -1.770330741        0.3457972722    
AX        -1.154004176       -0.9697053886E-01   -0.8033615995    
AX         1.548559585        0.7858973392       -0.5381092835E-02
AX       -0.4974856544       -0.8974736576         1.551720282    
AX        0.5541846467        -1.223429951         1.309225673    
AX        0.5417286494       -0.6079649731        -1.196812595    
AX         1.618221375       -0.3052195210        -1.121402396    
AX       -0.1437113588         1.374467821        0.3748859824    
AX        0.1132132388        -1.331169771       -0.4490975021    
AX        0.1169998443        0.7685855776       -0.5807566082    
AX         1.908342045       -0.2843254311       -0.3972402104E-01
AX       -0.2470042186        0.1602168585        -1.417311316    
AX        0.2845419281       -0.1482570354         1.337988898    
AX        -1.786997663        0.6991635856       -0.3630454930    
AX        -1.318356643        -1.115720880        0.8288239017    
AX       -0.5249329524       -0.3668973436        0.5994954337    
AX        0.4874765908       -0.6887128403        0.3663209865    
AX        0.2503845813        0.3700474661        0.3935497551    
AX        0.9004487696        0.5550092706E-02   -0.3617350884    
AX       -0.1485426852       -0.2716201401       -0.4149375871    
AX       -0.7565555692        0.5229052517        0.1853855609E-01
    38
Energy=    -170.956894617599    
AX        0.8334729998        0.4685650722        -1.348961999    
AX         1.481498017        -1.016063259        0.6897844599    
AX       -0.2812934798        -1.438804605        0.5930520163    
AX         1.187645571        -1.055264490       -0.3984355501    
AX        -1.550156500       -0.2030025356        0.2383279925    
AX        0.3735493013E-01     1.234456350        -1.563350535    
AX         1.215688966        0.5048755950E-01    0.7549209242    
AX        -1.297204228       -0.1185920611         1.328150451    
AX       -0.5078558932        0.6234945339         1.116465667    
AX        0.7772303427         1.537128842       -0.2210146286    
AX       -0.2371462055         1.805260733       -0.6395182599    
AX       -0.9265324523        -1.010401011       -0.2058299562    
AX        0.8694926278         1.129778576        0.8257554759    
AX       -0.5316058170       -0.9031253203        -1.244767440    
AX        -1.147302588         1.544242297       -0.4512498065E-01
AX       -0.8886410531        0.9669230353       -0.9788836805    
AX        -1.529717772        0.8061752888        0.7266486034    
AX        0.7485623289        -1.770330749        0.3457972472    
AX        -1.154004179       -0.9697054245E-01   -0.8033615944    
AX         1.548559612        0.7858973430       -0.5381113531E-02
AX       -0.4974856518       -0.8974737254         1.551720239    
AX        0.5541845929        -1.223430000         1.309225649    
AX        0.5417286570       -0.6079649570        -1.196812601    
AX         1.618221374       -0.3052194954        -1.121402352    
AX       -0.1437113686         1.374467843        0.3748859579    
AX        0.1132132425        -1.331169783       -0.4490975333    
AX        0.1169998086        0.7685855571       -0.5807566061    
AX         1.908342035       -0.2843254448       -0.3972398082E-01
AX       -0.2470042137        0.1602168556        -1.417311334    
AX        0.2845419037       -0.1482570518         1.337988909    
AX        -1.786997657        0.6991635571       -0.3630454366    
AX        -1.318356661        -1.115720893        0.8288239162    
AX       -0.5249329370       -0.3668973566        0.5994954261    
AX        0.4874765709       -0.6887128356        0.3663209856    
AX        0.2503845746        0.3700474665        0.3935497482    
AX        0.9004487537        0.5550108012E-02   -0.3617350517    
AX       -0.1485426823       -0.2716201543       -0.4149375951    
AX       -0.7565555715        0.5229052509        0.1853856081E-01
    38
Energy=    -170.956894617599    
AX        0.8334730070        0.4685650783        -1.348961990    
AX         1.481498011        -1.016063252        0.6897844710    
AX       -0.2812934837        -1.438804613        0.5930520106    
AX         1.187645570        -1.055264491       -0.3984355456    
AX        -1.550156496       -0.2030025370        0.2383279973    
AX        0.3735494097E-01     1.234456353        -1.563350527    
AX         1.215688964        0.5048756575E-01    0.7549209210    
AX        -1.297204218       -0.1185920613         1.328150452    
AX       -0.5078558906        0.6234945345         1.116465666    
AX        0.7772303371         1.537128842       -0.2210146419    
AX       -0.2371462045         1.805260737       -0.6395182574    
AX       -0.9265324523        -1.010401012       -0.2058299549    
AX        0.8694926319         1.129778580        0.8257554642    
AX       -0.5316058191       -0.9031253209        -1.244767439    
AX        -1.147302590         1.544242300       -0.4512498629E-01
AX       -0.8886410517        0.9669230368       -0.9788836809    
AX        -1.529717765        0.8061752920        0.7266486067    
AX        0.7485623307        -1.770330750        0.3457972453    
AX        -1.154004180       -0.9697054406E-01   -0.8033615959    
AX         1.548559610        0.7858973451       -0.5381128722E-02
AX       -0.4974856504       -0.8974737321         1.551720230    
AX        0.5541845870        -1.223430008         1.309225648    
AX        0.5417286576       -0.6079649562        -1.196812602    
AX         1.618221373       -0.3052194912        -1.121402346    
AX       -0.1437113722         1.374467845        0.3748859581    
AX        0.1132132424        -1.331169783       -0.4490975379    
AX        0.1169998060        0.7685855562       -0.5807566032    
AX         1.908342033       -0.2843254470       -0.3972397764E-01
AX       -0.2470042106        0.1602168544        -1.417311335    
AX        0.2845419011       -0.1482570531         1.337988910    
AX        -1.786997656        0.6991635539       -0.3630454283    
AX        -1.318356665        -1.115720894        0.8288239212    
AX       -0.5249329357       -0.3668973577        0.5994954268    
AX        0.4874765690       -0.6887128349        0.3663209868    
AX        0.2503845695        0.3700474659        0.3935497481    
AX        0.9004487494        0.5550103651E-02   -0.3617350461    
AX       -0.1485426809       -0.2716201593       -0.4149376003    
AX       -0.7565555705        0.5229052534        0.1853856167E-01
    38
Energy=    -170.956894617590    
AX        0.8334730414        0.4685650899        -1.348961970    
AX         1.481498030        -1.016063243        0.6897844932    
AX       -0.2812935074        -1.438804627        0.5930520348    
AX         1.187645584        -1.055264521       -0.3984355389    
AX        -1.550156517       -0.2030025523        0.2383279719    
AX        0.3735497839E-01     1.234456359        -1.563350509    
AX         1.215688990        0.5048756859E-01    0.7549208823    
AX        -1.297204248       -0.1185920593         1.328150421    
AX       -0.5078559043        0.6234944952         1.116465668    
AX        0.7772302860         1.537128936       -0.2210146090    
AX       -0.2371462045         1.805260739       -0.6395182362    
AX       -0.9265324630        -1.010401027       -0.2058299619    
AX        0.8694926872         1.129778575        0.8257554286    
AX       -0.5316058074       -0.9031252995        -1.244767435    
AX        -1.147302592         1.544242309       -0.4512498749E-01
AX       -0.8886410434        0.9669230427       -0.9788836809    
AX        -1.529717753        0.8061752931        0.7266485908    
AX        0.7485623250        -1.770330753        0.3457972666    
AX        -1.154004192       -0.9697054935E-01   -0.8033616223    
AX         1.548559542        0.7858973671       -0.5381246788E-02
AX       -0.4974856415       -0.8974737141         1.551720221    
AX        0.5541846184        -1.223430023         1.309225687    
AX        0.5417286579       -0.6079649738        -1.196812603    
AX         1.618221387       -0.3052194908        -1.121402376    
AX       -0.1437113909         1.374467828        0.3748859861    
AX        0.1132132318        -1.331169761       -0.4490975367    
AX        0.1169998465        0.7685855660       -0.5807565323    
AX         1.908342033       -0.2843254558       -0.3972399701E-01
AX       -0.2470041829        0.1602168534        -1.417311319    
AX        0.2845419072       -0.1482570719         1.337988910    
AX        -1.786997670        0.6991635575       -0.3630454216    
AX        -1.318356691        -1.115720884        0.8288239577    
AX       -0.5249329467       -0.3668973579        0.5994954436    
AX        0.4874765694       -0.6887128024        0.3663209876    
AX        0.2503845492        0.3700474180        0.3935496885    
AX        0.9004486833        0.5550054601E-02   -0.3617350057    
AX       -0.1485426359       -0.2716201710       -0.4149376166    
AX       -0.7565555563        0.5229052854        0.1853856597E-01
    38
Energy=    -170.956894617595    
AX        0.8334729871        0.4685650666        -1.348961997    
AX         1.481497986        -1.016063277        0.6897844861    
AX       -0.2812935079        -1.438804638        0.5930519882    
AX         1.187645551        -1.055264486       -0.3984355396    
AX        -1.550156467       -0.2030025429        0.2383280355    
AX        0.3735492932E-01     1.234456366        -1.563350502    
AX         1.215688922        0.5048758605E-01    0.7549209489    
AX        -1.297204184       -0.1185921037         1.328150506    
AX       -0.5078558720        0.6234945665         1.116465691    
AX        0.7772303935         1.537128861       -0.2210148142    
AX       -0.2371462235         1.805260773       -0.6395182974    
AX       -0.9265324230        -1.010400974       -0.2058299558    
AX        0.8694926237         1.129778678        0.8257553566    
AX       -0.5316058068       -0.9031253155        -1.244767471    
AX        -1.147302595         1.544242294       -0.4512497532E-01
AX       -0.8886410555        0.9669230329       -0.9788836563    
AX        -1.529717712        0.8061752594        0.7266486433    
AX        0.7485623031        -1.770330761        0.3457972330    
AX        -1.154004163       -0.9697054481E-01   -0.8033615890    
AX         1.548559666        0.7858973899       -0.5381083523E-02
AX       -0.4974856978       -0.8974738121         1.551720221    
AX        0.5541845352        -1.223430046         1.309225644    
AX        0.5417286701       -0.6079649450        -1.196812584    
AX         1.618221369       -0.3052194893        -1.121402321    
AX       -0.1437113321         1.374467859        0.3748858681    
AX        0.1132132357        -1.331169787       -0.4490975483    
AX        0.1169998009        0.7685855621       -0.5807566201    
AX         1.908341992       -0.2843254411       -0.3972393647E-01
AX       -0.2470042140        0.1602168667        -1.417311345    
AX        0.2845418593       -0.1482570870         1.337988942    
AX        -1.786997642        0.6991635173       -0.3630453862    
AX        -1.318356685        -1.115720923        0.8288238819    
AX       -0.5249329410       -0.3668973739        0.5994954468    
AX        0.4874765679       -0.6887128487        0.3663209915    
AX        0.2503845999        0.3700474724        0.3935498014    
AX        0.9004487675        0.5550151412E-02   -0.3617350211    
AX       -0.1485426651       -0.2716201432       -0.4149375987    
AX       -0.7565555723        0.5229052379        0.1853855681E-01
    38
Energy=    -170.956894617580    
AX        0.8334729007        0.4685650004        -1.348962093    
AX         1.481497971        -1.016063377        0.6897844472    
AX       -0.2812935428        -1.438804642        0.5930519903    
AX         1.187645525        -1.055264470       -0.3984355572    
AX        -1.550156458       -0.2030025558        0.2383280736    
AX        0.3735483473E-01     1.234456373        -1.563350522    
AX         1.215688879        0.5048756891E-01    0.7549210370    
AX        -1.297204180       -0.1185921902         1.328150602    
AX       -0.5078558363        0.6234946083         1.116465739    
AX        0.7772305358         1.537128909       -0.2210150809    
AX       -0.2371462724         1.805260812       -0.6395184014    
AX       -0.9265323708        -1.010400899       -0.2058299963    
AX        0.8694926035         1.129778877        0.8257552023    
AX       -0.5316057464       -0.9031252738        -1.244767532    
AX        -1.147302591         1.544242258       -0.4512491321E-01
AX       -0.8886410832        0.9669230190       -0.9788836160    
AX        -1.529717644        0.8061751712        0.7266487001    
AX        0.7485622260        -1.770330784        0.3457972267    
AX        -1.154004124       -0.9697054668E-01   -0.8033615834    
AX         1.548559799        0.7858974692       -0.5380880302E-02
AX       -0.4974858044       -0.8974739379         1.551720265    
AX        0.5541844839        -1.223430077         1.309225657    
AX        0.5417286785       -0.6079649248        -1.196812522    
AX         1.618221375       -0.3052195141        -1.121402325    
AX       -0.1437112285         1.374467858        0.3748856731    
AX        0.1132132083        -1.331169773       -0.4490975504    
AX        0.1169998174        0.7685855895       -0.5807566154    
AX         1.908341923       -0.2843254202       -0.3972386613E-01
AX       -0.2470042428        0.1602168891        -1.417311348    
AX        0.2845417773       -0.1482571709         1.337988999    
AX        -1.786997635        0.6991634658       -0.3630453521    
AX        -1.318356705        -1.115720971        0.8288237825    
AX       -0.5249329485       -0.3668973753        0.5994955238    
AX        0.4874765826       -0.6887128331        0.3663209855    
AX        0.2503846230        0.3700474555        0.3935498569    
AX        0.9004488061        0.5550276905E-02   -0.3617349890    
AX       -0.1485425958       -0.2716200920       -0.4149375929    
AX       -0.7565555422        0.5229052267        0.1853857698E-01
    38
Energy=    -170.956894617554    
AX        0.8334727329        0.4685649101        -1.348962297    
AX         1.481497948        -1.016063461        0.6897843207    
AX       -0.2812934936        -1.438804539        0.5930519862    
AX         1.187645488        -1.055264365       -0.3984355860    
AX        -1.550156468       -0.2030025430        0.2383280928    
AX        0.3735463432E-01     1.234456322        -1.563350701    
AX         1.215688874        0.5048747447E-01    0.7549212436    
AX        -1.297204138       -0.1185922122         1.328150659    
AX       -0.5078558045        0.6234946812         1.116465730    
AX        0.7772307324         1.537128700       -0.2210152109    
AX       -0.2371463004         1.805260786       -0.6395185185    
AX       -0.9265323489        -1.010400867       -0.2058300431    
AX        0.8694924795         1.129778970        0.8257552831    
AX       -0.5316056965       -0.9031252508        -1.244767532    
AX        -1.147302556         1.544242172       -0.4512484493E-01
AX       -0.8886411475        0.9669230085       -0.9788836131    
AX        -1.529717707        0.8061751122        0.7266487492    
AX        0.7485621786        -1.770330804        0.3457971818    
AX        -1.154004094       -0.9697053509E-01   -0.8033615428    
AX         1.548560038        0.7858974200       -0.5380341573E-02
AX       -0.4974858668       -0.8974740047         1.551720357    
AX        0.5541844703        -1.223430016         1.309225589    
AX        0.5417286535       -0.6079648666        -1.196812468    
AX         1.618221375       -0.3052195463        -1.121402336    
AX       -0.1437111336         1.374467864        0.3748855255    
AX        0.1132132018        -1.331169772       -0.4490975507    
AX        0.1169997662        0.7685855848       -0.5807566661    
AX         1.908341952       -0.2843254047       -0.3972380581E-01
AX       -0.2470043535        0.1602168840        -1.417311360    
AX        0.2845417051       -0.1482572013         1.337989022    
AX        -1.786997634        0.6991634702       -0.3630453796    
AX        -1.318356648        -1.115720983        0.8288236737    
AX       -0.5249329185       -0.3668973478        0.5994955738    
AX        0.4874766117       -0.6887127722        0.3663209250    
AX        0.2503846444        0.3700474829        0.3935498350    
AX        0.9004489026        0.5550492423E-02   -0.3617350268    
AX       -0.1485425585       -0.2716200466       -0.4149375604    
AX       -0.7565555201        0.5229052053        0.1853863615E-01
    38
Energy=    -170.956894617539    
AX        0.8334726635        0.4685648747        -1.348962385    
AX         1.481497939        -1.016063483        0.6897842544    
AX       -0.2812934542        -1.438804488        0.5930519792    
AX         1.187645473        -1.055264318       -0.3984356074    
AX        -1.550156470       -0.2030025227        0.2383281073    
AX        0.3735455122E-01     1.234456305        -1.563350789    
AX         1.215688882        0.5048742651E-01    0.7549213214    
AX        -1.297204114       -0.1185922026         1.328150683    
AX       -0.5078557870        0.6234947150         1.116465722    
AX        0.7772307943         1.537128539       -0.2210151854    
AX       -0.2371462990         1.805260762       -0.6395185510    
AX       -0.9265323420        -1.010400858       -0.2058300575    
AX        0.8694924023         1.129778969        0.8257554085    
AX       -0.5316056905       -0.9031252600        -1.244767523    
AX        -1.147302549         1.544242139       -0.4512484103E-01
AX       -0.8886411780        0.9669230016       -0.9788836337    
AX        -1.529717740        0.8061751103        0.7266487622    
AX        0.7485621765        -1.770330812        0.3457971575    
AX        -1.154004087       -0.9697053644E-01   -0.8033615246    
AX         1.548560147        0.7858973777       -0.5380086723E-02
AX       -0.4974858708       -0.8974739947         1.551720400    
AX        0.5541844644        -1.223429967         1.309225544    
AX        0.5417286333       -0.6079648421        -1.196812454    
AX         1.618221368       -0.3052195649        -1.121402338    
AX       -0.1437111251         1.374467870        0.3748854981    
AX        0.1132132026        -1.331169783       -0.4490975557    
AX        0.1169997275        0.7685855637       -0.5807566963    
AX         1.908341979       -0.2843254008       -0.3972379149E-01
AX       -0.2470044092        0.1602168682        -1.417311383    
AX        0.2845416951       -0.1482571836         1.337989023    
AX        -1.786997633        0.6991634751       -0.3630454131    
AX        -1.318356601        -1.115720979        0.8288236341    
AX       -0.5249328793       -0.3668973178        0.5994955806    
AX        0.4874766125       -0.6887127436        0.3663208894    
AX        0.2503846259        0.3700475116        0.3935497949    
AX        0.9004489490        0.5550585215E-02   -0.3617350614    
AX       -0.1485425527       -0.2716200344       -0.4149375426    
AX       -0.7565555038        0.5229051986        0.1853866167E-01
    38
Energy=    -170.956894617444    
AX        0.8334726043        0.4685648443        -1.348962445    
AX         1.481497958        -1.016063496        0.6897842161    
AX       -0.2812933987        -1.438804444        0.5930519764    
AX         1.187645469        -1.055264289       -0.3984356486    
AX        -1.550156488       -0.2030024995        0.2383281125    
AX        0.3735447985E-01     1.234456300        -1.563350878    
AX         1.215688936        0.5048736974E-01    0.7549213771    
AX        -1.297204126       -0.1185921774         1.328150726    
AX       -0.5078557438        0.6234947205         1.116465705    
AX        0.7772308216         1.537128360       -0.2210150763    
AX       -0.2371462711         1.805260749       -0.6395185604    
AX       -0.9265323382        -1.010400857       -0.2058300572    
AX        0.8694923676         1.129778940        0.8257555884    
AX       -0.5316056971       -0.9031252927        -1.244767545    
AX        -1.147302556         1.544242152       -0.4512489079E-01
AX       -0.8886412161        0.9669229963       -0.9788836846    
AX        -1.529717742        0.8061751435        0.7266487810    
AX        0.7485621717        -1.770330812        0.3457971477    
AX        -1.154004101       -0.9697054395E-01   -0.8033615248    
AX         1.548560253        0.7858973445       -0.5379888824E-02
AX       -0.4974858543       -0.8974739718         1.551720453    
AX        0.5541844752        -1.223429893         1.309225512    
AX        0.5417286549       -0.6079648197        -1.196812459    
AX         1.618221341       -0.3052195368        -1.121402338    
AX       -0.1437111607         1.374467856        0.3748855245    
AX        0.1132132139        -1.331169820       -0.4490975555    
AX        0.1169996588        0.7685854560       -0.5807566765    
AX         1.908341994       -0.2843254192       -0.3972379472E-01
AX       -0.2470044583        0.1602168546        -1.417311434    
AX        0.2845416817       -0.1482571459         1.337989020    
AX        -1.786997650        0.6991634682       -0.3630454402    
AX        -1.318356584        -1.115720988        0.8288236281    
AX       -0.5249327059       -0.3668972132        0.5994954749    
AX        0.4874765166       -0.6887127245        0.3663208817    
AX        0.2503843901        0.3700475266        0.3935496937    
AX        0.9004490094        0.5550660402E-02   -0.3617351707    
AX       -0.1485425459       -0.2716199326       -0.4149374219    
AX       -0.7565553596        0.5229051331        0.1853867153E-01
    38
Energy=    -170.956894617441    
AX        0.8334723928        0.4685649370        -1.348962632    
AX         1.481498071        -1.016063566        0.6897843455    
AX       -0.2812934103        -1.438804461        0.5930518999    
AX         1.187645509        -1.055264021       -0.3984355536    
AX        -1.550156568       -0.2030026738        0.2383279826    
AX        0.3735399390E-01     1.234455922        -1.563351134    
AX         1.215688828        0.5048726497E-01    0.7549219059    
AX        -1.297203989       -0.1185922069         1.328150445    
AX       -0.5078560089        0.6234949328         1.116465305    
AX        0.7772313345         1.537128121       -0.2210160266    
AX       -0.2371460892         1.805260757       -0.6395188226    
AX       -0.9265323830        -1.010400967       -0.2058300486    
AX        0.8694925915         1.129779051        0.8257551260    
AX       -0.5316057427       -0.9031251993        -1.244767365    
AX        -1.147302219         1.544242161       -0.4512438885E-01
AX       -0.8886413677        0.9669231184       -0.9788833715    
AX        -1.529718214        0.8061748986        0.7266487612    
AX        0.7485622358        -1.770330740        0.3457970070    
AX        -1.154004219       -0.9697050005E-01   -0.8033613753    
AX         1.548560627        0.7858972093       -0.5379232588E-02
AX       -0.4974859560       -0.8974743499         1.551720243    
AX        0.5541846263        -1.223429979         1.309225486    