    38
Energy=    -173.252378415650    
AX        0.8625434528        0.5274065006        -1.246837913    
AX         1.455282963       -0.9887455246        0.7614495582    
AX       -0.2985199694        -1.470580659        0.5701069880    
AX         1.207744877        -1.003882629       -0.3321378837    
AX        -1.574644248       -0.2277267833        0.2130249462    
AX        0.7194380427E-01     1.287353397        -1.465637862    
AX         1.172265685        0.7573999811E-01    0.8323875741    
AX        -1.379149104       -0.1980721211         1.316809355    
AX       -0.5981001091        0.5695889005         1.179261305    
AX        0.8878231524         1.528466123       -0.7421812516    
AX       -0.1995598006         1.831794895       -0.5291266891    
AX       -0.9188717463        -1.011029733       -0.2351495381    
AX        0.9526225003         1.050061659        0.2503864388    
AX       -0.4817656251       -0.8524232524        -1.245217288    
AX        -1.141196587         1.540040053        0.3490886336E-01
AX       -0.8570675940         1.007097198       -0.9099087689    
AX        -1.594950665        0.7592085271        0.7449874722    
AX        0.7595034968        -1.762612985        0.3562286307    
AX        -1.131365274       -0.6842347160E-01   -0.7982058423    
AX         1.685588282        0.7514998830       -0.5189525218    
AX       -0.5722016440       -0.9839812955         1.542607463    
AX        0.5028078660        -1.283858409         1.331977244    
AX        0.5813729632       -0.5461969734        -1.133788382    
AX         1.642824439       -0.2425721106        -1.026077801    
AX       -0.1415237627         1.355277056        0.4647661544    
AX        0.1396586871        -1.306310002       -0.4425509589    
AX        0.1290174474        0.7954461214       -0.4740114678    
AX         1.903873790       -0.2167991431        0.5945106510E-01
AX       -0.2041630560        0.2188589868        -1.353595191    
AX        0.2138663701       -0.2212084406         1.406463823    
AX        -1.782234739        0.7128584635       -0.3549944804    
AX        -1.357299470        -1.172124408        0.7709809277    
AX       -0.5697565173       -0.4070217212        0.6194979705    
AX        0.4651735409       -0.6957185915        0.4167206487    
AX        0.1920974696        0.3398921372        0.4965133697    
AX        0.8970396167        0.4744740117E-01   -0.2591053442    
AX       -0.1431680842       -0.2533177894       -0.3700458544    
AX       -0.7775124066        0.5145687409        0.6899524031E-01
    38
Energy=    -173.252378415649    
AX        0.8625434450        0.5274064926        -1.246837907    
AX         1.455282951       -0.9887455077        0.7614495623    
AX       -0.2985199729        -1.470580661        0.5701069825    
AX         1.207744879        -1.003882629       -0.3321378794    
AX        -1.574644250       -0.2277267901        0.2130249420    
AX        0.7194380378E-01     1.287353399        -1.465637860    
AX         1.172265693        0.7574001176E-01    0.8323875746    
AX        -1.379149111       -0.1980721165         1.316809354    
AX       -0.5981001102        0.5695889110         1.179261301    
AX        0.8878231520         1.528466119       -0.7421812557    
AX       -0.1995597947         1.831794902       -0.5291266845    
AX       -0.9188717425        -1.011029728       -0.2351495356    
AX        0.9526224992         1.050061657        0.2503864330    
AX       -0.4817656226       -0.8524232519        -1.245217296    
AX        -1.141196574         1.540040046        0.3490887493E-01
AX       -0.8570675950         1.007097202       -0.9099087667    
AX        -1.594950668        0.7592085241        0.7449874673    
AX        0.7595034931        -1.762612978        0.3562286258    
AX        -1.131365275       -0.6842347560E-01   -0.7982058494    
AX         1.685588277        0.7514998799       -0.5189525266    
AX       -0.5722016390       -0.9839813020         1.542607465    
AX        0.5028078642        -1.283858412         1.331977237    
AX        0.5813729650       -0.5461969772        -1.133788381    
AX         1.642824439       -0.2425721100        -1.026077798    
AX       -0.1415237460         1.355277052        0.4647661565    
AX        0.1396586861        -1.306310006       -0.4425509647    
AX        0.1290174457        0.7954461143       -0.4740114541    
AX         1.903873794       -0.2167991353        0.5945106976E-01
AX       -0.2041630602        0.2188589875        -1.353595192    
AX        0.2138663805       -0.2212084457         1.406463830    
AX        -1.782234734        0.7128584598       -0.3549944833    
AX        -1.357299475        -1.172124411        0.7709809334    
AX       -0.5697565165       -0.4070217163        0.6194979723    
AX        0.4651735328       -0.6957186041        0.4167206478    
AX        0.1920974591        0.3398921575        0.4965133536    
AX        0.8970396162        0.4744740351E-01   -0.2591053432    
AX       -0.1431680908       -0.2533177879       -0.3700458483    
AX       -0.7775123971        0.5145687264        0.6899524344E-01
    38
Energy=    -173.252378415648    
AX        0.8625434551        0.5274065074        -1.246837900    
AX         1.455282981       -0.9887455791        0.7614495322    
AX       -0.2985199725        -1.470580661        0.5701069949    
AX         1.207744872        -1.003882637       -0.3321378941    
AX        -1.574644252       -0.2277267834        0.2130249522    
AX        0.7194381446E-01     1.287353410        -1.465637846    
AX         1.172265694        0.7573996782E-01    0.8323875493    
AX        -1.379149098       -0.1980721103         1.316809368    
AX       -0.5981000959        0.5695888867         1.179261319    
AX        0.8878231458         1.528466137       -0.7421812230    
AX       -0.1995598495         1.831794895       -0.5291267069    
AX       -0.9188717481        -1.011029736       -0.2351495430    
AX        0.9526225038         1.050061667        0.2503864546    
AX       -0.4817656201       -0.8524232471        -1.245217287    
AX        -1.141196631         1.540040059        0.3490881980E-01
AX       -0.8570675988         1.007097190       -0.9099087784    
AX        -1.594950643        0.7592085366        0.7449874709    
AX        0.7595034785        -1.762612994        0.3562286290    
AX        -1.131365266       -0.6842346678E-01   -0.7982058393    
AX         1.685588287        0.7514998861       -0.5189524902    
AX       -0.5722016374       -0.9839812853         1.542607475    
AX        0.5028078759        -1.283858389         1.331977241    
AX        0.5813729697       -0.5461969736        -1.133788392    
AX         1.642824449       -0.2425720962        -1.026077787    
AX       -0.1415237871         1.355277063        0.4647661207    
AX        0.1396586904        -1.306309993       -0.4425509576    
AX        0.1290174477        0.7954461322       -0.4740114790    
AX         1.903873795       -0.2167991952        0.5945106218E-01
AX       -0.2041630530        0.2188589910        -1.353595202    
AX        0.2138663533       -0.2212084227         1.406463824    
AX        -1.782234746        0.7128584444       -0.3549944785    
AX        -1.357299453        -1.172124386        0.7709809441    
AX       -0.5697565193       -0.4070217245        0.6194979742    
AX        0.4651735497       -0.6957185892        0.4167206541    
AX        0.1920974820        0.3398921339        0.4965133930    
AX        0.8970396238        0.4744739865E-01   -0.2591053452    
AX       -0.1431680764       -0.2533177898       -0.3700458697    
AX       -0.7775124193        0.5145687545        0.6899524026E-01
    38
Energy=    -173.252378415646    
AX        0.8625435031        0.5274065447        -1.246837939    
AX         1.455283036       -0.9887456429        0.7614495156    
AX       -0.2985199402        -1.470580641        0.5701070177    
AX         1.207744860        -1.003882635       -0.3321379101    
AX        -1.574644239       -0.2277267460        0.2130249703    
AX        0.7194381146E-01     1.287353400        -1.465637872    
AX         1.172265679        0.7573989494E-01    0.8323875707    
AX        -1.379149068       -0.1980721438         1.316809380    
AX       -0.5981000974        0.5695888299         1.179261337    
AX        0.8878231567         1.528466157       -0.7421812236    
AX       -0.1995598460         1.831794874       -0.5291267339    
AX       -0.9188717694        -1.011029761       -0.2351495554    
AX        0.9526224890         1.050061661        0.2503864867    
AX       -0.4817656442       -0.8524232584        -1.245217241    
AX        -1.141196688         1.540040104        0.3490877214E-01
AX       -0.8570675929         1.007097174       -0.9099087901    
AX        -1.594950636        0.7592085375        0.7449875073    
AX        0.7595035029        -1.762613014        0.3562286504    
AX        -1.131365257       -0.6842345294E-01   -0.7982057907    
AX         1.685588307        0.7514998970       -0.5189524879    
AX       -0.5722016723       -0.9839812558         1.542607470    
AX        0.5028078666        -1.283858371         1.331977271    
AX        0.5813729646       -0.5461969532        -1.133788400    
AX         1.642824445       -0.2425721061        -1.026077811    
AX       -0.1415238612         1.355277043        0.4647661251    
AX        0.1396586910        -1.306309971       -0.4425509109    
AX        0.1290174740        0.7954461297       -0.4740114798    
AX         1.903873781       -0.2167992002        0.5945103088E-01
AX       -0.2041630317        0.2188589847        -1.353595202    
AX        0.2138662935       -0.2212084251         1.406463830    
AX        -1.782234772        0.7128584729       -0.3549944714    
AX        -1.357299447        -1.172124390        0.7709809088    
AX       -0.5697565177       -0.4070217366        0.6194979190    
AX        0.4651735934       -0.6957185878        0.4167206656    
AX        0.1920974718        0.3398921372        0.4965133692    
AX        0.8970396277        0.4744742402E-01   -0.2591053597    
AX       -0.1431680652       -0.2533177722       -0.3700458612    
AX       -0.7775124082        0.5145687965        0.6899524204E-01
    38
Energy=    -173.252378415644    
AX        0.8625435151        0.5274065515        -1.246837961    
AX         1.455283052       -0.9887456463        0.7614495199    
AX       -0.2985199280        -1.470580635        0.5701070232    
AX         1.207744859        -1.003882629       -0.3321379085    
AX        -1.574644234       -0.2277267316        0.2130249734    
AX        0.7194380694E-01     1.287353392        -1.465637886    
AX         1.172265666        0.7573988064E-01    0.8323875859    
AX        -1.379149063       -0.1980721676         1.316809380    
AX       -0.5981001013        0.5695888022         1.179261343    
AX        0.8878231664         1.528466157       -0.7421812413    
AX       -0.1995598243         1.831794869       -0.5291267352    
AX       -0.9188717789        -1.011029773       -0.2351495621    
AX        0.9526224889         1.050061660        0.2503864849    
AX       -0.4817656542       -0.8524232635        -1.245217222    
AX        -1.141196692         1.540040120        0.3490877066E-01
AX       -0.8570675876         1.007097174       -0.9099087862    
AX        -1.594950636        0.7592085306        0.7449875219    
AX        0.7595035202        -1.762613013        0.3562286639    
AX        -1.131365255       -0.6842344470E-01   -0.7982057710    
AX         1.685588312        0.7514999020       -0.5189525072    
AX       -0.5722016951       -0.9839812521         1.542607461    
AX        0.5028078560        -1.283858369         1.331977284    
AX        0.5813729579       -0.5461969472        -1.133788397    
AX         1.642824441       -0.2425721150        -1.026077826    
AX       -0.1415238809         1.355277039        0.4647661386    
AX        0.1396586931        -1.306309963       -0.4425508916    
AX        0.1290174898        0.7954461267       -0.4740114911    
AX         1.903873778       -0.2167991802        0.5945102226E-01
AX       -0.2041630264        0.2188589798        -1.353595197    
AX        0.2138662654       -0.2212084274         1.406463826    
AX        -1.782234774        0.7128584929       -0.3549944632    
AX        -1.357299452        -1.172124401        0.7709808858    
AX       -0.5697565155       -0.4070217409        0.6194979017    
AX        0.4651736071       -0.6957185833        0.4167206742    
AX        0.1920974701        0.3398921222        0.4965133739    
AX        0.8970396240        0.4744743572E-01   -0.2591053711    
AX       -0.1431680573       -0.2533177671       -0.3700458628    
AX       -0.7775124146        0.5145688145        0.6899524523E-01
    38
Energy=    -173.252378415594    
AX        0.8625434561        0.5274064460        -1.246838123    
AX         1.455283083       -0.9887454694        0.7614496353    
AX       -0.2985199167        -1.470580669        0.5701069951    
AX         1.207744920        -1.003882559       -0.3321378069    
AX        -1.574644259       -0.2277267293        0.2130249341    
AX        0.7194376055E-01     1.287353365        -1.465637949    
AX         1.172265636        0.7573999416E-01    0.8323876533    
AX        -1.379149149       -0.1980723427         1.316809339    
AX       -0.5981001609        0.5695886141         1.179261403    
AX        0.8878232766         1.528466093       -0.7421814956    
AX       -0.1995596149         1.831794900       -0.5291266412    
AX       -0.9188718311        -1.011029844       -0.2351496231    
AX        0.9526225515         1.050061670        0.2503862997    
AX       -0.4817656880       -0.8524232899        -1.245217192    
AX        -1.141196552         1.540040190        0.3490891646E-01
AX       -0.8570675467         1.007097264       -0.9099086886    
AX        -1.594950656        0.7592084524        0.7449876006    
AX        0.7595036340        -1.762612930        0.3562287705    
AX        -1.131365276       -0.6842335337E-01   -0.7982057272    
AX         1.685588324        0.7514999364       -0.5189527895    
AX       -0.5722018534       -0.9839813564         1.542607399    
AX        0.5028077593        -1.283858372         1.331977343    
AX        0.5813729254       -0.5461969939        -1.133788367    
AX         1.642824434       -0.2425721792        -1.026077880    
AX       -0.1415237951         1.355277047        0.4647662404    
AX        0.1396587676        -1.306309965       -0.4425508219    
AX        0.1290175383        0.7954459696       -0.4740114762    
AX         1.903873786       -0.2167989529        0.5945105865E-01
AX       -0.2041630793        0.2188589548        -1.353595173    
AX        0.2138660682       -0.2212084763         1.406463840    
AX        -1.782234719        0.7128586356       -0.3549943731    
AX        -1.357299506        -1.172124503        0.7709807265    
AX       -0.5697565142       -0.4070217534        0.6194978677    
AX        0.4651736137       -0.6957184786        0.4167207090    
AX        0.1920974071        0.3398920087        0.4965133302    
AX        0.8970394597        0.4744747596E-01   -0.2591054026    
AX       -0.1431679389       -0.2533176417       -0.3700458298    
AX       -0.7775123443        0.5145688426        0.6899529758E-01
    38
Energy=    -173.252378415608    
AX        0.8625437012        0.5274067889        -1.246837798    
AX         1.455283077       -0.9887459516        0.7614493618    
AX       -0.2985198974        -1.470580535        0.5701071052    
AX         1.207744742        -1.003882747       -0.3321380876    
AX        -1.574644159       -0.2277266734        0.2130250687    
AX        0.7194386416E-01     1.287353377        -1.465637902    
AX         1.172265664        0.7573958127E-01    0.8323875849    
AX        -1.379148860       -0.1980719918         1.316809432    
AX       -0.5981000165        0.5695890236         1.179261243    
AX        0.8878230517         1.528466283       -0.7421808736    
AX       -0.1995600878         1.831794834       -0.5291268909    
AX       -0.9188717626        -1.011029728       -0.2351494633    
AX        0.9526224060         1.050061661        0.2503867832    
AX       -0.4817656413       -0.8524232482        -1.245217214    
AX        -1.141196941         1.540040082        0.3490853572E-01
AX       -0.8570676537         1.007097006       -0.9099089517    
AX        -1.594950650        0.7592086411        0.7449874719    
AX        0.7595034168        -1.762613183        0.3562285559    
AX        -1.131365237       -0.6842357228E-01   -0.7982057646    
AX         1.685588330        0.7514998991       -0.5189521023    
AX       -0.5722015378       -0.9839810334         1.542607500    
AX        0.5028079756        -1.283858389         1.331977271    
AX        0.5813729701       -0.5461968080        -1.133788418    
AX         1.642824433       -0.2425720647        -1.026077859    
AX       -0.1415241669         1.355277016        0.4647660567    
AX        0.1396585691        -1.306309951       -0.4425509254    
AX        0.1290174585        0.7954462205       -0.4740115008    
AX         1.903873783       -0.2167994767        0.5945094268E-01
AX       -0.2041628869        0.2188589940        -1.353595183    
AX        0.2138665061       -0.2212083596         1.406463772    
AX        -1.782234908        0.7128583539       -0.3549945797    
AX        -1.357299400        -1.172124307        0.7709810280    
AX       -0.5697564178       -0.4070216506        0.6194978604    
AX        0.4651736175       -0.6957186292        0.4167206036    
AX        0.1920975003        0.3398921488        0.4965133387    
AX        0.8970397185        0.4744740864E-01   -0.2591053480    
AX       -0.1431681230       -0.2533178222       -0.3700458201    
AX       -0.7775124367        0.5145688014        0.6899516683E-01
    38
Energy=    -173.252378415542    
AX        0.8625438067        0.5274069783        -1.246837519    
AX         1.455283062       -0.9887463058        0.7614491994    
AX       -0.2985198909        -1.470580472        0.5701071679    
AX         1.207744655        -1.003882966       -0.3321382494    
AX        -1.574644116       -0.2277266458        0.2130251420    
AX        0.7194394232E-01     1.287353416        -1.465637858    
AX         1.172265750        0.7573931592E-01    0.8323875173    
AX        -1.379148714       -0.1980717173         1.316809449    
AX       -0.5980999277        0.5695893153         1.179261132    
AX        0.8878228879         1.528466435       -0.7421804386    
AX       -0.1995605715         1.831794810       -0.5291270102    
AX       -0.9188717054        -1.011029644       -0.2351493773    
AX        0.9526223877         1.050061703        0.2503869960    
AX       -0.4817655485       -0.8524231825        -1.245217317    
AX        -1.141197236         1.540040001        0.3490829428E-01
AX       -0.8570678202         1.007096864       -0.9099091354    
AX        -1.594950617        0.7592088564        0.7449873835    
AX        0.7595032287        -1.762613342        0.3562284803    
AX        -1.131365263       -0.6842365212E-01   -0.7982058714    
AX         1.685588354        0.7514998700       -0.5189516150    
AX       -0.5722012771       -0.9839808726         1.542607549    
AX        0.5028082071        -1.283858368         1.331977239    
AX        0.5813730049       -0.5461967097        -1.133788432    
AX         1.642824460       -0.2425719752        -1.026077829    
AX       -0.1415244021         1.355277068        0.4647658981    
AX        0.1396585216        -1.306310010       -0.4425510389    
AX        0.1290173705        0.7954461813       -0.4740114830    
AX         1.903873786       -0.2167999744        0.5945096116E-01
AX       -0.2041627883        0.2188590305        -1.353595178    
AX        0.2138668179       -0.2212082854         1.406463720    
AX        -1.782235042        0.7128581427       -0.3549946396    
AX        -1.357299297        -1.172124158        0.7709811811    
AX       -0.5697562653       -0.4070214713        0.6194979459    
AX        0.4651736168       -0.6957186883        0.4167205155    
AX        0.1920975008        0.3398921206        0.4965132795    
AX        0.8970396709        0.4744732668E-01   -0.2591053137    
AX       -0.1431680735       -0.2533177708       -0.3700458128    
AX       -0.7775124749        0.5145687754        0.6899506767E-01
    38
Energy=    -173.252378415408    
AX        0.8625437598        0.5274070381        -1.246837138    
AX         1.455282988       -0.9887466861        0.7614490194    
AX       -0.2985199446        -1.470580497        0.5701071554    
AX         1.207744613        -1.003883190       -0.3321383738    
AX        -1.574644138       -0.2277267036        0.2130251393    
AX        0.7194399978E-01     1.287353585        -1.465637613    
AX         1.172265932        0.7573922773E-01    0.8323872728    
AX        -1.379148672       -0.1980712781         1.316809503    
AX       -0.5980998133        0.5695896442         1.179261071    
AX        0.8878226302         1.528466603       -0.7421800220    
AX       -0.1995612020         1.831794796       -0.5291271657    
AX       -0.9188715775        -1.011029512       -0.2351493719    
AX        0.9526223557         1.050061738        0.2503872283    
AX       -0.4817654290       -0.8524231090        -1.245217490    
AX        -1.141197553         1.540039860        0.3490804579E-01
AX       -0.8570680019         1.007096777       -0.9099093005    
AX        -1.594950494        0.7592090768        0.7449872410    
AX        0.7595029241        -1.762613481        0.3562283140    
AX        -1.131365284       -0.6842371447E-01   -0.7982060639    
AX         1.685588394        0.7514997446       -0.5189511145    
AX       -0.5722008691       -0.9839807916         1.542607705    
AX        0.5028084591        -1.283858274         1.331977130    
AX        0.5813731345       -0.5461967323        -1.133788492    
AX         1.642824554       -0.2425718419        -1.026077572    
AX       -0.1415244124         1.355277160        0.4647655972    
AX        0.1396585153        -1.306310087       -0.4425512261    
AX        0.1290172281        0.7954461982       -0.4740113666    
AX         1.903873805       -0.2168006214        0.5945098958E-01
AX       -0.2041627921        0.2188591362        -1.353595276    
AX        0.2138671506       -0.2212081756         1.406463728    
AX        -1.782235136        0.7128577970       -0.3549947466    
AX        -1.357299102        -1.172123872        0.7709814758    
AX       -0.5697562670       -0.4070214226        0.6194981132    
AX        0.4651735952       -0.6957187818        0.4167204310    
AX        0.1920975265        0.3398921909        0.4965133137    
AX        0.8970396626        0.4744722359E-01   -0.2591051721    
AX       -0.1431680200       -0.2533177474       -0.3700459451    
AX       -0.7775125210        0.5145687210        0.6899497527E-01
    38
Energy=    -173.252378415345    
AX        0.8625437198        0.5274070178        -1.246837064    
AX         1.455282972       -0.9887467780        0.7614490133    
AX       -0.2985199486        -1.470580508        0.5701071351    
AX         1.207744633        -1.003883263       -0.3321383709    
AX        -1.574644143       -0.2277267141        0.2130251186    
AX        0.7194399183E-01     1.287353637        -1.465637537    
AX         1.172265983        0.7573923382E-01    0.8323872057    
AX        -1.379148685       -0.1980711891         1.316809480    
AX       -0.5980997885        0.5695896973         1.179261069    
AX        0.8878225532         1.528466642       -0.7421799766    
AX       -0.1995613856         1.831794776       -0.5291271824    
AX       -0.9188715259        -1.011029470       -0.2351494105    
AX        0.9526223610         1.050061743        0.2503872250    
AX       -0.4817653839       -0.8524230794        -1.245217549    
AX        -1.141197640         1.540039838        0.3490801965E-01
AX       -0.8570680728         1.007096792       -0.9099093235    
AX        -1.594950442        0.7592091466        0.7449872269    
AX        0.7595028472        -1.762613498        0.3562283263    
AX        -1.131365306       -0.6842368843E-01   -0.7982061218    
AX         1.685588418        0.7514996851       -0.5189510406    
AX       -0.5722007774       -0.9839808046         1.542607712    
AX        0.5028085307        -1.283858223         1.331977120    
AX        0.5813731749       -0.5461967698        -1.133788505    
AX         1.642824582       -0.2425718254        -1.026077485    
AX       -0.1415243858         1.355277188        0.4647655225    
AX        0.1396585563        -1.306310122       -0.4425512658    
AX        0.1290171819        0.7954461947       -0.4740113225    
AX         1.903873787       -0.2168008034        0.5945101971E-01
AX       -0.2041628244        0.2188591689        -1.353595309    
AX        0.2138672022       -0.2212081507         1.406463736    
AX        -1.782235158        0.7128577255       -0.3549947190    
AX        -1.357299034        -1.172123800        0.7709814847    
AX       -0.5697562965       -0.4070214347        0.6194981763    
AX        0.4651736209       -0.6957188121        0.4167204329    
AX        0.1920975511        0.3398922315        0.4965133267    
AX        0.8970396494        0.4744719152E-01   -0.2591051230    
AX       -0.1431679755       -0.2533177173       -0.3700460083    
AX       -0.7775125430        0.5145687426        0.6899496304E-01
    38
Energy=    -173.252378415180    
AX        0.8625436049        0.5274068652        -1.246837174    
AX         1.455283079       -0.9887467984        0.7614491913    
AX       -0.2985198540        -1.470580501        0.5701071059    
AX         1.207744785        -1.003883380       -0.3321382411    
AX        -1.574644129       -0.2277266341        0.2130250677    
AX        0.7194392481E-01     1.287353660        -1.465637516    
AX         1.172265963        0.7573930465E-01    0.8323872473    
AX        -1.379148881       -0.1980713481         1.316809274    
AX       -0.5980998389        0.5695895316         1.179261096    
AX        0.8878225027         1.528466649       -0.7421802518    
AX       -0.1995615253         1.831794618       -0.5291270455    
AX       -0.9188713794        -1.011029362       -0.2351495562    
AX        0.9526224091         1.050061697        0.2503868862    
AX       -0.4817652880       -0.8524229866        -1.245217571    
AX        -1.141197709         1.540039992        0.3490814846E-01
AX       -0.8570682187         1.007096967       -0.9099092790    
AX        -1.594950342        0.7592093700        0.7449873969    
AX        0.7595029144        -1.762613428        0.3562286679    
AX        -1.131365372       -0.6842345651E-01   -0.7982061821    
AX         1.685588496        0.7514995604       -0.5189512782    
AX       -0.5722008747       -0.9839810579         1.542607533    
AX        0.5028086993        -1.283858064         1.331977305    
AX        0.5813731967       -0.5461968870        -1.133788462    
AX         1.642824595       -0.2425718812        -1.026077439    
AX       -0.1415243230         1.355277162        0.4647655862    
AX        0.1396587963        -1.306310189       -0.4425512378    
AX        0.1290170814        0.7954461082       -0.4740113338    
AX         1.903873593       -0.2168009109        0.5945114211E-01
AX       -0.2041629497        0.2188591926        -1.353595306    
AX        0.2138670340       -0.2212082093         1.406463742    
AX        -1.782235188        0.7128578875       -0.3549944061    
AX        -1.357298953        -1.172123834        0.7709810763    
AX       -0.5697564773       -0.4070215660        0.6194983522    
AX        0.4651738467       -0.6957188659        0.4167204954    
AX        0.1920976412        0.3398923963        0.4965133530    
AX        0.8970395869        0.4744708860E-01   -0.2591051483    
AX       -0.1431678760       -0.2533176555       -0.3700461918    
AX       -0.7775125694        0.5145689643        0.6899495139E-01
    38
Energy=    -173.252378414825    
AX        0.8625436120        0.5274069741        -1.246836858    
AX         1.455282948       -0.9887469462        0.7614490034    
AX       -0.2985199086        -1.470580560        0.5701070266    
AX         1.207744687        -1.003883388       -0.3321383573    
AX        -1.574644160       -0.2277267006        0.2130249902    
AX        0.7194384339E-01     1.287353709        -1.465637338    
AX         1.172266123        0.7573923207E-01    0.8323870462    
AX        -1.379148685       -0.1980709297         1.316809505    
AX       -0.5980997125        0.5695898117         1.179261162    
AX        0.8878223115         1.528466595       -0.7421798771    
AX       -0.1995616756         1.831794816       -0.5291272544    
AX       -0.9188713927        -1.011029380       -0.2351495692    
AX        0.9526223765         1.050061770        0.2503872760    
AX       -0.4817653385       -0.8524230836        -1.245217722    
AX        -1.141197794         1.540039794        0.3490797306E-01
AX       -0.8570681929         1.007096837       -0.9099093553    
AX        -1.594950290        0.7592091657        0.7449871201    
AX        0.7595026752        -1.762613553        0.3562282492    
AX        -1.131365327       -0.6842370464E-01   -0.7982061457    
AX         1.685588348        0.7514994843       -0.5189508962    
AX       -0.5722005364       -0.9839807823         1.542607803    
AX        0.5028085815        -1.283858111         1.331976993    