    38
Energy=    -173.252378415649    
AX        0.8624155908        0.5274890552        -1.246891433    
AX         1.455434266       -0.9885783034        0.7613775535    
AX       -0.2983264905        -1.470607870        0.5701380664    
AX         1.207836480        -1.003753227       -0.3321958396    
AX        -1.574607277       -0.2278976279        0.2131154859    
AX        0.7172023188E-01     1.287346991        -1.465654441    
AX         1.172304048        0.7587683197E-01    0.8323210881    
AX        -1.379053480       -0.1982107388         1.316888641    
AX       -0.5980965075        0.5695347056         1.179289306    
AX        0.8876136785         1.528556374       -0.7422459573    
AX       -0.1997906379         1.831767803       -0.5291333572    
AX       -0.9187739062        -1.011132941       -0.2350881484    
AX        0.9525212244         1.050168716        0.2503227684    
AX       -0.4817418583       -0.8524883064        -1.245181945    
AX        -1.141363771         1.539915074        0.3495782939E-01
AX       -0.8572292188         1.006994189       -0.9098705118    
AX        -1.594992234        0.7590406333        0.7450695393    
AX        0.7597170376        -1.762526098        0.3562032183    
AX        -1.131402517       -0.6855550108E-01   -0.7981417043    
AX         1.685476635        0.7516799392       -0.5190544035    
AX       -0.5720070646       -0.9840290770         1.542649145    
AX        0.5030235602        -1.283790178         1.331961562    
AX        0.5813693455       -0.5461441865        -1.133815664    
AX         1.642793513       -0.2424016947        -1.026167580    
AX       -0.1416465534         1.355266044        0.4647608774    
AX        0.1397773210        -1.306298967       -0.4425460462    
AX        0.1289035100        0.7954556645       -0.4740264593    
AX         1.903900916       -0.2165894760        0.5934638478E-01
AX       -0.2042630127        0.2188233565        -1.353585870    
AX        0.2139695336       -0.2211712246         1.406453984    
AX        -1.782332929        0.7126592708       -0.3549014608    
AX        -1.357127491        -1.172265936        0.7710684759    
AX       -0.5696770669       -0.4070782474        0.6195338895    
AX        0.4652733239       -0.6956634336        0.4167013488    
AX        0.1920879961        0.3399180769        0.4964992899    
AX        0.8970198681        0.4754339059E-01   -0.2591561206    
AX       -0.1431610171       -0.2533371187       -0.3700353519    
AX       -0.7775650435        0.5144840384        0.6903384035E-01
    38
Energy=    -173.252378415649    
AX        0.8624155856        0.5274890476        -1.246891442    
AX         1.455434272       -0.9885783077        0.7613775516    
AX       -0.2983264947        -1.470607874        0.5701380633    
AX         1.207836483        -1.003753224       -0.3321958346    
AX        -1.574607280       -0.2278976326        0.2131154831    
AX        0.7172023568E-01     1.287346992        -1.465654436    
AX         1.172304049        0.7587683379E-01    0.8323210830    
AX        -1.379053482       -0.1982107422         1.316888642    
AX       -0.5980965115        0.5695346938         1.179289318    
AX        0.8876136838         1.528556375       -0.7422459651    
AX       -0.1997906403         1.831767805       -0.5291333556    
AX       -0.9187739074        -1.011132945       -0.2350881584    
AX        0.9525212265         1.050168715        0.2503227601    
AX       -0.4817418599       -0.8524883078        -1.245181944    
AX        -1.141363775         1.539915078        0.3495782478E-01
AX       -0.8572292170         1.006994193       -0.9098705070    
AX        -1.594992230        0.7590406287        0.7450695412    
AX        0.7597170354        -1.762526096        0.3562032256    
AX        -1.131402517       -0.6855549537E-01   -0.7981416998    
AX         1.685476639        0.7516799426       -0.5190544118    
AX       -0.5720070681       -0.9840290783         1.542649145    
AX        0.5030235553        -1.283790175         1.331961562    
AX        0.5813693469       -0.5461441945        -1.133815665    
AX         1.642793512       -0.2424016897        -1.026167576    
AX       -0.1416465509         1.355266046        0.4647608730    
AX        0.1397773251        -1.306298965       -0.4425460409    
AX        0.1289035127        0.7954556643       -0.4740264583    
AX         1.903900918       -0.2165894778        0.5934638757E-01
AX       -0.2042630198        0.2188233572        -1.353585874    
AX        0.2139695189       -0.2211712252         1.406453992    
AX        -1.782332930        0.7126592706       -0.3549014528    
AX        -1.357127486        -1.172265932        0.7710684723    
AX       -0.5696770658       -0.4070782503        0.6195338780    
AX        0.4652733222       -0.6956634246        0.4167013512    
AX        0.1920880045        0.3399180789        0.4964992897    
AX        0.8970198656        0.4754339327E-01   -0.2591561185    
AX       -0.1431610168       -0.2533371186       -0.3700353484    
AX       -0.7775650394        0.5144840391        0.6903384450E-01
    38
Energy=    -173.252378415644    
AX        0.8624155982        0.5274890617        -1.246891443    
AX         1.455434279       -0.9885783276        0.7613775491    
AX       -0.2983264954        -1.470607870        0.5701380673    
AX         1.207836479        -1.003753233       -0.3321958411    
AX        -1.574607277       -0.2278976305        0.2131154874    
AX        0.7172023707E-01     1.287346994        -1.465654443    
AX         1.172304045        0.7587681789E-01    0.8323210789    
AX        -1.379053471       -0.1982107385         1.316888647    
AX       -0.5980965196        0.5695347023         1.179289326    
AX        0.8876136815         1.528556384       -0.7422459533    
AX       -0.1997906569         1.831767807       -0.5291333614    
AX       -0.9187739096        -1.011132946       -0.2350881532    
AX        0.9525212189         1.050168710        0.2503227703    
AX       -0.4817418592       -0.8524883084        -1.245181948    
AX        -1.141363792         1.539915081        0.3495781543E-01
AX       -0.8572292242         1.006994187       -0.9098705132    
AX        -1.594992229        0.7590406298        0.7450695451    
AX        0.7597170311        -1.762526105        0.3562032238    
AX        -1.131402520       -0.6855549585E-01   -0.7981416971    
AX         1.685476645        0.7516799453       -0.5190543981    
AX       -0.5720070663       -0.9840290666         1.542649148    
AX        0.5030235555        -1.283790175         1.331961568    
AX        0.5813693496       -0.5461441897        -1.133815671    
AX         1.642793517       -0.2424016908        -1.026167584    
AX       -0.1416465682         1.355266051        0.4647608657    
AX        0.1397773230        -1.306298966       -0.4425460389    
AX        0.1289035171        0.7954556447       -0.4740264353    
AX         1.903900923       -0.2165894956        0.5934638722E-01
AX       -0.2042630131        0.2188233593        -1.353585879    
AX        0.2139695253       -0.2211712271         1.406453997    
AX        -1.782332935        0.7126592647       -0.3549014547    
AX        -1.357127486        -1.172265931        0.7710684733    
AX       -0.5696770572       -0.4070782482        0.6195338652    
AX        0.4652733155       -0.6956634030        0.4167013399    
AX        0.1920880437        0.3399180725        0.4964992354    
AX        0.8970198316        0.4754340175E-01   -0.2591560948    
AX       -0.1431610017       -0.2533371009       -0.3700353200    
AX       -0.7775650345        0.5144840361        0.6903383750E-01
    38
Energy=    -173.252378415642    
AX        0.8624156726        0.5274891226        -1.246891489    
AX         1.455434322       -0.9885784388        0.7613775383    
AX       -0.2983264708        -1.470607843        0.5701381098    
AX         1.207836473        -1.003753249       -0.3321958613    
AX        -1.574607263       -0.2278975959        0.2131155282    
AX        0.7172022154E-01     1.287346983        -1.465654461    
AX         1.172304035        0.7587670795E-01    0.8323210867    
AX        -1.379053401       -0.1982107537         1.316888662    
AX       -0.5980964990        0.5695346534         1.179289328    
AX        0.8876136416         1.528556440       -0.7422459185    
AX       -0.1997907469         1.831767773       -0.5291333921    
AX       -0.9187739012        -1.011132945       -0.2350881809    
AX        0.9525212201         1.050168719        0.2503227961    
AX       -0.4817418556       -0.8524882922        -1.245181905    
AX        -1.141363897         1.539915116        0.3495776316E-01
AX       -0.8572292341         1.006994175       -0.9098705362    
AX        -1.594992224        0.7590406430        0.7450695680    
AX        0.7597170235        -1.762526131        0.3562032662    
AX        -1.131402508       -0.6855547514E-01   -0.7981416534    
AX         1.685476687        0.7516799182       -0.5190543394    
AX       -0.5720070837       -0.9840289963         1.542649138    
AX        0.5030235615        -1.283790160         1.331961588    
AX        0.5813693569       -0.5461441604        -1.133815672    
AX         1.642793510       -0.2424017103        -1.026167597    
AX       -0.1416466712         1.355266019        0.4647608462    
AX        0.1397773323        -1.306298943       -0.4425459946    
AX        0.1289035340        0.7954556843       -0.4740264877    
AX         1.903900895       -0.2165895917        0.5934637478E-01
AX       -0.2042629852        0.2188233665        -1.353585874    
AX        0.2139694773       -0.2211712155         1.406453989    
AX        -1.782332976        0.7126592681       -0.3549014218    
AX        -1.357127455        -1.172265910        0.7710684354    
AX       -0.5696770344       -0.4070782391        0.6195337991    
AX        0.4652733728       -0.6956634207        0.4167013506    
AX        0.1920880006        0.3399180908        0.4964992849    
AX        0.8970198982        0.4754340766E-01   -0.2591561509    
AX       -0.1431610048       -0.2533371035       -0.3700353501    
AX       -0.7775650245        0.5144840851        0.6903383352E-01
    38
Energy=    -173.252378415633    
AX        0.8624157753        0.5274892331        -1.246891470    
AX         1.455434344       -0.9885785491        0.7613775291    
AX       -0.2983264302        -1.470607797        0.5701381626    
AX         1.207836440        -1.003753296       -0.3321959139    
AX        -1.574607233       -0.2278975403        0.2131155785    
AX        0.7172020124E-01     1.287346978        -1.465654517    
AX         1.172304019        0.7587657552E-01    0.8323211129    
AX        -1.379053330       -0.1982107528         1.316888683    
AX       -0.5980964667        0.5695346877         1.179289276    
AX        0.8876135883         1.528556484       -0.7422458321    
AX       -0.1997908302         1.831767740       -0.5291334371    
AX       -0.9187738967        -1.011132926       -0.2350881336    
AX        0.9525212008         1.050168722        0.2503228723    
AX       -0.4817418408       -0.8524882710        -1.245181885    
AX        -1.141364001         1.539915129        0.3495771886E-01
AX       -0.8572292663         1.006994126       -0.9098705889    
AX        -1.594992224        0.7590406798        0.7450695896    
AX        0.7597170210        -1.762526172        0.3562032560    
AX        -1.131402502       -0.6855549187E-01   -0.7981416367    
AX         1.685476705        0.7516798927       -0.5190542329    
AX       -0.5720070877       -0.9840289230         1.542649138    
AX        0.5030235907        -1.283790152         1.331961617    
AX        0.5813693583       -0.5461440858        -1.133815679    
AX         1.642793520       -0.2424017445        -1.026167643    
AX       -0.1416468048         1.355265999        0.4647608389    
AX        0.1397773120        -1.306298934       -0.4425459850    
AX        0.1289035433        0.7954556831       -0.4740264984    
AX         1.903900874       -0.2165896856        0.5934634760E-01
AX       -0.2042629118        0.2188233702        -1.353585861    
AX        0.2139695245       -0.2211711976         1.406453944    
AX        -1.782333013        0.7126592606       -0.3549014415    
AX        -1.357127462        -1.172265921        0.7710684259    
AX       -0.5696770129       -0.4070782140        0.6195338038    
AX        0.4652734168       -0.6956634533        0.4167013375    
AX        0.1920880016        0.3399180888        0.4964992339    
AX        0.8970199041        0.4754341387E-01   -0.2591561673    
AX       -0.1431609812       -0.2533370760       -0.3700353460    
AX       -0.7775650447        0.5144841200        0.6903380226E-01
    38
Energy=    -173.252378415620    
AX        0.8624158361        0.5274893010        -1.246891448    
AX         1.455434349       -0.9885785955        0.7613775116    
AX       -0.2983264084        -1.470607773        0.5701381951    
AX         1.207836410        -1.003753312       -0.3321959462    
AX        -1.574607219       -0.2278975096        0.2131156093    
AX        0.7172019173E-01     1.287346973        -1.465654558    
AX         1.172304008        0.7587649966E-01    0.8323211355    
AX        -1.379053283       -0.1982107582         1.316888699    
AX       -0.5980964399        0.5695347143         1.179289234    
AX        0.8876135661         1.528556498       -0.7422457758    
AX       -0.1997908429         1.831767730       -0.5291334651    
AX       -0.9187739120        -1.011132928       -0.2350880854    
AX        0.9525211891         1.050168727        0.2503229331    
AX       -0.4817418372       -0.8524882629        -1.245181870    
AX        -1.141364041         1.539915126        0.3495768892E-01
AX       -0.8572292728         1.006994088       -0.9098706152    
AX        -1.594992225        0.7590406899        0.7450695910    
AX        0.7597170269        -1.762526185        0.3562032228    
AX        -1.131402495       -0.6855551488E-01   -0.7981416256    
AX         1.685476702        0.7516798868       -0.5190541711    
AX       -0.5720070967       -0.9840288738         1.542649139    
AX        0.5030236000        -1.283790152         1.331961620    
AX        0.5813693453       -0.5461440311        -1.133815678    
AX         1.642793526       -0.2424017647        -1.026167680    
AX       -0.1416468831         1.355265986        0.4647608422    
AX        0.1397772871        -1.306298926       -0.4425459824    
AX        0.1289035567        0.7954556762       -0.4740265052    
AX         1.903900872       -0.2165897056        0.5934632276E-01
AX       -0.2042628596        0.2188233609        -1.353585842    
AX        0.2139695617       -0.2211711825         1.406453907    
AX        -1.782333017        0.7126592567       -0.3549014775    
AX        -1.357127480        -1.172265935        0.7710684386    
AX       -0.5696770243       -0.4070782120        0.6195338458    
AX        0.4652734490       -0.6956634971        0.4167013380    
AX        0.1920879974        0.3399180905        0.4964992193    
AX        0.8970199032        0.4754342480E-01   -0.2591561825    
AX       -0.1431609579       -0.2533370565       -0.3700353685    
AX       -0.7775650804        0.5144841464        0.6903378363E-01
    38
Energy=    -173.252378415543    
AX        0.8624158492        0.5274893192        -1.246891432    
AX         1.455434331       -0.9885785839        0.7613774694    
AX       -0.2983264000        -1.470607767        0.5701382154    
AX         1.207836380        -1.003753297       -0.3321959561    
AX        -1.574607218       -0.2278974952        0.2131156272    
AX        0.7172019111E-01     1.287346976        -1.465654587    
AX         1.172303982        0.7587648039E-01    0.8323211456    
AX        -1.379053242       -0.1982107715         1.316888708    
AX       -0.5980964390        0.5695347188         1.179289233    
AX        0.8876135752         1.528556495       -0.7422457481    
AX       -0.1997907936         1.831767764       -0.5291334878    
AX       -0.9187739627        -1.011132968       -0.2350880409    
AX        0.9525211490         1.050168703        0.2503229935    
AX       -0.4817418464       -0.8524882647        -1.245181843    
AX        -1.141364018         1.539915098        0.3495765812E-01
AX       -0.8572292566         1.006994057       -0.9098706117    
AX        -1.594992212        0.7590406674        0.7450695565    
AX        0.7597170388        -1.762526162        0.3562031650    
AX        -1.131402479       -0.6855553677E-01   -0.7981416102    
AX         1.685476691        0.7516799031       -0.5190541490    
AX       -0.5720071117       -0.9840288328         1.542649133    
AX        0.5030235882        -1.283790151         1.331961580    
AX        0.5813693034       -0.5461439915        -1.133815660    
AX         1.642793537       -0.2424017729        -1.026167706    
AX       -0.1416469058         1.355265966        0.4647608535    
AX        0.1397772617        -1.306298907       -0.4425459789    
AX        0.1289036177        0.7954556194       -0.4740264948    
AX         1.903900912       -0.2165896623        0.5934629748E-01
AX       -0.2042628271        0.2188233284        -1.353585803    
AX        0.2139695665       -0.2211711804         1.406453905    
AX        -1.782332978        0.7126592539       -0.3549015277    
AX        -1.357127485        -1.172265928        0.7710684831    
AX       -0.5696771546       -0.4070783093        0.6195339745    
AX        0.4652735200       -0.6956636142        0.4167013737    
AX        0.1920880939        0.3399181793        0.4964992221    
AX        0.8970198443        0.4754348231E-01   -0.2591562023    
AX       -0.1431608924       -0.2533370343       -0.3700355193    
AX       -0.7775652084        0.5144842182        0.6903376392E-01
    38
Energy=    -173.252378415539    
AX        0.8624160006        0.5274895675        -1.246891114    
AX         1.455434304       -0.9885790212        0.7613774467    
AX       -0.2983263649        -1.470607667        0.5701382611    
AX         1.207836315        -1.003753617       -0.3321961345    
AX        -1.574607134       -0.2278974400        0.2131156869    
AX        0.7172024693E-01     1.287347075        -1.465654522    
AX         1.172304100        0.7587624210E-01    0.8323210333    
AX        -1.379053182       -0.1982104742         1.316888762    
AX       -0.5980963088        0.5695350390         1.179289039    
AX        0.8876133607         1.528556682       -0.7422453262    
AX       -0.1997914561         1.831767635       -0.5291336315    
AX       -0.9187737970        -1.011132777       -0.2350879712    
AX        0.9525211608         1.050168759        0.2503231463    
AX       -0.4817417078       -0.8524881642        -1.245181988    
AX        -1.141364431         1.539915035        0.3495752685E-01
AX       -0.8572295153         1.006993924       -0.9098708428    
AX        -1.594992176        0.7590409168        0.7450695901    
AX        0.7597168233        -1.762526395        0.3562031656    
AX        -1.131402509       -0.6855559485E-01   -0.7981417656    
AX         1.685476754        0.7516798245       -0.5190536506    
AX       -0.5720068408       -0.9840287434         1.542649245    
AX        0.5030238186        -1.283790094         1.331961669    
AX        0.5813694459       -0.5461438906        -1.133815754    
AX         1.642793618       -0.2424016955        -1.026167634    
AX       -0.1416471061         1.355266047        0.4647606521    
AX        0.1397772477        -1.306298981       -0.4425461314    
AX        0.1289034351        0.7954556925       -0.4740265179    
AX         1.903900821       -0.2165903452        0.5934631427E-01
AX       -0.2042627018        0.2188234471        -1.353585902    
AX        0.2139699290       -0.2211710836         1.406453768    
AX        -1.782333203        0.7126590316       -0.3549015278    
AX        -1.357127382        -1.172265789        0.7710685956    
AX       -0.5696768620       -0.4070780158        0.6195339656    
AX        0.4652734444       -0.6956635435        0.4167012371    
AX        0.1920879978        0.3399180125        0.4964991195    
AX        0.8970199068        0.4754330452E-01   -0.2591561418    
AX       -0.1431609232       -0.2533370236       -0.3700353420    
AX       -0.7775651275        0.5144841205        0.6903367276E-01
    38
Energy=    -173.252378415444    
AX        0.8624159617        0.5274896080        -1.246890840    
AX         1.455434229       -0.9885793069        0.7613774147    
AX       -0.2983263756        -1.470607624        0.5701382319    
AX         1.207836294        -1.003753869       -0.3321962032    
AX        -1.574607085       -0.2278974528        0.2131156746    
AX        0.7172028972E-01     1.287347199        -1.465654354    
AX         1.172304205        0.7587619899E-01    0.8323208631    
AX        -1.379053180       -0.1982101833         1.316888748    
AX       -0.5980962492        0.5695352571         1.179289009    
AX        0.8876132101         1.528556830       -0.7422450525    
AX       -0.1997920448         1.831767617       -0.5291337380    
AX       -0.9187736542        -1.011132643       -0.2350880178    
AX        0.9525211233         1.050168737        0.2503232086    
AX       -0.4817415819       -0.8524880756        -1.245182128    
AX        -1.141364696         1.539914933        0.3495744143E-01
AX       -0.8572297390         1.006993868       -0.9098709671    
AX        -1.594992092        0.7590411079        0.7450695635    
AX        0.7597166072        -1.762526552        0.3562031974    
AX        -1.131402510       -0.6855560741E-01   -0.7981419195    
AX         1.685476820        0.7516797650       -0.5190533168    
AX       -0.5720065579       -0.9840287273         1.542649308    
AX        0.5030240102        -1.283790009         1.331961674    
AX        0.5813695653       -0.5461439029        -1.133815801    
AX         1.642793694       -0.2424016022        -1.026167459    
AX       -0.1416471018         1.355266110        0.4647604539    
AX        0.1397772778        -1.306299023       -0.4425462786    
AX        0.1289032953        0.7954557182       -0.4740265256    
AX         1.903900827       -0.2165909402        0.5934637463E-01
AX       -0.2042626985        0.2188235487        -1.353585982    
AX        0.2139701475       -0.2211710180         1.406453777    
AX        -1.782333363        0.7126588217       -0.3549014792    
AX        -1.357127194        -1.172265560        0.7710687165    
AX       -0.5696768150       -0.4070779485        0.6195340473    
AX        0.4652734475       -0.6956635896        0.4167011820    
AX        0.1920881035        0.3399180914        0.4964991208    
AX        0.8970199216        0.4754316926E-01   -0.2591560935    
AX       -0.1431609178       -0.2533370553       -0.3700354545    
AX       -0.7775651740        0.5144841101        0.6903360385E-01
    38
Energy=    -173.252378415364    
AX        0.8624158968        0.5274895627        -1.246890773    
AX         1.455434214       -0.9885794072        0.7613774610    
AX       -0.2983263830        -1.470607610        0.5701381912    
AX         1.207836332        -1.003753976       -0.3321961937    
AX        -1.574607061       -0.2278974680        0.2131156419    
AX        0.7172028925E-01     1.287347246        -1.465654248    
AX         1.172304240        0.7587623812E-01    0.8323207832    
AX        -1.379053230       -0.1982100807         1.316888704    
AX       -0.5980962578        0.5695353070         1.179289045    
AX        0.8876131488         1.528556889       -0.7422450284    
AX       -0.1997923157         1.831767589       -0.5291337469    
AX       -0.9187735391        -1.011132553       -0.2350881136    
AX        0.9525211124         1.050168708        0.2503231475    
AX       -0.4817415194       -0.8524880300        -1.245182191    
AX        -1.141364805         1.539914922        0.3495746149E-01
AX       -0.8572298431         1.006993899       -0.9098709962    
AX        -1.594992053        0.7590412012        0.7450695898    
AX        0.7597165211        -1.762526619        0.3562033033    
AX        -1.131402513       -0.6855556996E-01   -0.7981419897    
AX         1.685476872        0.7516797184       -0.5190532619    
AX       -0.5720064480       -0.9840287809         1.542649308    
AX        0.5030240930        -1.283789960         1.331961714    
AX        0.5813696445       -0.5461439654        -1.133815816    
AX         1.642793713       -0.2424015723        -1.026167350    
AX       -0.1416470446         1.355266135        0.4647603811    
AX        0.1397773326        -1.306299041       -0.4425463343    
AX        0.1289032034        0.7954557650       -0.4740265440    
AX         1.903900801       -0.2165912050        0.5934643412E-01
AX       -0.2042627529        0.2188236176        -1.353586034    
AX        0.2139701856       -0.2211710107         1.406453820    
AX        -1.782333456        0.7126587625       -0.3549013746    
AX        -1.357127090        -1.172265462        0.7710686848    
AX       -0.5696767723       -0.4070779256        0.6195339929    
AX        0.4652734358       -0.6956635431        0.4167011560    
AX        0.1920881935        0.3399181532        0.4964991175    
AX        0.8970199595        0.4754307865E-01   -0.2591560620    
AX       -0.1431609641       -0.2533371124       -0.3700354705    
AX       -0.7775651396        0.5144840996        0.6903359062E-01
    38
Energy=    -173.252378414908    
AX        0.8624159259        0.5274896138        -1.246890740    
AX         1.455434116       -0.9885794670        0.7613774600    
AX       -0.2983265358        -1.470607581        0.5701381406    
AX         1.207836247        -1.003753898       -0.3321961729    
AX        -1.574607020       -0.2278976162        0.2131156400    
AX        0.7172018638E-01     1.287347219        -1.465654157    
AX         1.172304178        0.7587621451E-01    0.8323206529    
AX        -1.379053002       -0.1982099520         1.316888678    
AX       -0.5980962324        0.5695354958         1.179289163    
AX        0.8876130761         1.528556907       -0.7422449191    
AX       -0.1997924521         1.831767660       -0.5291338421    
AX       -0.9187734485        -1.011132473       -0.2350881581    
AX        0.9525210021         1.050168656        0.2503233786    
AX       -0.4817414901       -0.8524880116        -1.245182225    
AX        -1.141364856         1.539914812        0.3495747233E-01
AX       -0.8572297714         1.006993824       -0.9098709239    
AX        -1.594992071        0.7590410994        0.7450695541    
AX        0.7597164464        -1.762526754        0.3562031933    
AX        -1.131402398       -0.6855574047E-01   -0.7981419715    
AX         1.685476867        0.7516796891       -0.5190531378    
AX       -0.5720063158       -0.9840285613         1.542649251    
AX        0.5030240056        -1.283790002         1.331961670    
AX        0.5813697127       -0.5461439689        -1.133815820    
AX         1.642793670       -0.2424016533        -1.026167253    
AX       -0.1416470528         1.355266113        0.4647602705    
AX        0.1397771606        -1.306298934       -0.4425464037    
AX        0.1289028959        0.7954562033       -0.4740265776    
AX         1.903900905       -0.2165913598        0.5934640425E-01
AX       -0.2042627506        0.2188236888        -1.353586057    
AX        0.2139703375       -0.2211709213         1.406453931    
AX        -1.782333541        0.7126586482       -0.3549014849    
AX        -1.357127015        -1.172265354        0.7710688021    
AX       -0.5696768598       -0.4070780850        0.6195338326    
AX        0.4652733833       -0.6956633447        0.4167010388    
AX        0.1920886396        0.3399183890        0.4964990792    
AX        0.8970203209        0.4754279955E-01   -0.2591558237    
AX       -0.1431612280       -0.2533374133       -0.3700354641    
AX       -0.7775650377        0.5144840595        0.6903351762E-01
    38
Energy=    -173.252378414640    
AX        0.8624159079        0.5274897519        -1.246890072    
AX         1.455433459       -0.9885798422        0.7613770071    
AX       -0.2983269981        -1.470607688        0.5701379388    
AX         1.207835903        -1.003754052       -0.3321962601    
AX        -1.574607081       -0.2278981559        0.2131155715    
AX        0.7172037139E-01     1.287347375        -1.465653725    
AX         1.172304858        0.7587610235E-01    0.8323201615    
AX        -1.379052054       -0.1982089910         1.316888897    
AX       -0.5980957583        0.5695362517         1.179289161    
AX        0.8876128197         1.528557227       -0.7422439273    
AX       -0.1997933220         1.831768262       -0.5291342896    
AX       -0.9187737720        -1.011132850       -0.2350883286    
AX        0.9525211136         1.050168985        0.2503240688    
AX       -0.4817414757       -0.8524881217        -1.245182682    
AX        -1.141365124         1.539914085        0.3495712900E-01
AX       -0.8572299091         1.006993473       -0.9098709829    
AX        -1.594992172        0.7590405314        0.7450689128    
AX        0.7597155329        -1.762526909        0.3562025549    
AX        -1.131402453       -0.6855610039E-01   -0.7981420836    
AX         1.685476865        0.7516797011       -0.5190520611    
AX       -0.5720054328       -0.9840275321         1.542649459    
AX        0.5030236297        -1.283790278         1.331960906    