    38
Energy=    -169.205253906215    
AX        0.8756508333        0.4692859873        -1.396959156    
AX         1.252428132       -0.8611904441         1.083629964    
AX       -0.2864813484        -1.261537396        0.2969014463    
AX         1.262679328        -1.213742437       -0.8429977366    
AX        -1.277387493       -0.4705695186        0.1529663048    
AX       -0.1813580818E-02     1.156444223        -1.512343345    
AX         1.313739785        0.2239448798        0.7671042047    
AX        -1.342169592        0.6981761750E-01     1.108626125    
AX       -0.3900359294        0.6511438699         1.307309099    
AX        0.7315469289         1.414884098        0.9672098460E-01
AX       -0.1931484147         1.671400484       -0.5224181295    
AX       -0.9441647027        -1.236838187       -0.5627439717    
AX        0.6551021982         1.105485943         1.238744439    
AX       -0.4881986679       -0.9571286026        -1.516411022    
AX        -1.200385574         1.500442858       -0.1160155262    
AX       -0.8412320450        0.7956644143       -0.8785173052    
AX        -1.298174804         1.147466648        0.9108948097    
AX        0.8637730382        -1.519701914        0.1670101627    
AX        -1.192187128       -0.2332892168       -0.9529108612    
AX         1.257752812        0.5250933348       -0.2839832441    
AX       -0.5336484492       -0.3439581266         1.824009917    
AX        0.1541406189        -1.086971591         1.274293221    
AX        0.6228028539       -0.6986236738        -1.631952661    
AX         1.688393260       -0.2052359030        -1.057734427    
AX       -0.2609791608         1.447865152        0.5631451363    
AX        0.1762020909        -1.238100920       -0.6887449186    
AX        0.1873761125        0.6685616189       -0.5518441764    
AX         1.552495632       -0.5567581369        0.5236344849E-02
AX       -0.1578531895        0.5183666123E-01    -1.355566362    
AX        0.4748469624       -0.4578167782E-01     1.406547064    
AX        -1.716245425        0.4855257137       -0.2261437983    
AX        -1.040998280        -1.059406355         1.104050117    
AX       -0.3931057223       -0.2826001698        0.7609614803    
AX        0.5384446802       -0.5349457427        0.3637910199    
AX        0.3052201240        0.4828171332        0.4594135980    
AX        0.6891352375       -0.2928729088       -0.6511766567    
AX       -0.3144538354       -0.3150313552       -0.3246734312    
AX       -0.7290672854        0.5466036398        0.1817812910    
    38
Energy=    -169.205253906214    
AX        0.8756508302        0.4692859778        -1.396959162    
AX         1.252428131       -0.8611904507         1.083629968    
AX       -0.2864813325        -1.261537381        0.2969014378    
AX         1.262679341        -1.213742437       -0.8429977451    
AX        -1.277387488       -0.4705695338        0.1529662950    
AX       -0.1813603038E-02     1.156444215        -1.512343350    
AX         1.313739782        0.2239448822        0.7671042150    
AX        -1.342169592        0.6981766100E-01     1.108626082    
AX       -0.3900359162        0.6511438678         1.307309115    
AX        0.7315469291         1.414884093        0.9672099151E-01
AX       -0.1931484330         1.671400479       -0.5224181146    
AX       -0.9441646873        -1.236838201       -0.5627439753    
AX        0.6551022128         1.105485930         1.238744440    
AX       -0.4881986700       -0.9571286192        -1.516411034    
AX        -1.200385599         1.500442844       -0.1160155209    
AX       -0.8412320492        0.7956643972       -0.8785172922    
AX        -1.298174764         1.147466709        0.9108948566    
AX        0.8637730319        -1.519701908        0.1670101527    
AX        -1.192187123       -0.2332892380       -0.9529108751    
AX         1.257752822        0.5250933317       -0.2839832431    
AX       -0.5336484846       -0.3439581206         1.824009915    
AX        0.1541406218        -1.086971586         1.274293221    
AX        0.6228028374       -0.6986236803        -1.631952665    
AX         1.688393268       -0.2052358987        -1.057734425    
AX       -0.2609791518         1.447865156        0.5631451548    
AX        0.1762020977        -1.238100920       -0.6887449343    
AX        0.1873761249        0.6685616201       -0.5518441661    
AX         1.552495634       -0.5567581314        0.5236343279E-02
AX       -0.1578531972        0.5183664891E-01    -1.355566367    
AX        0.4748469600       -0.4578167840E-01     1.406547080    
AX        -1.716245424        0.4855256918       -0.2261438123    
AX        -1.040998300        -1.059406348         1.104050098    
AX       -0.3931057167       -0.2826001687        0.7609614787    
AX        0.5384446839       -0.5349457355        0.3637910274    
AX        0.3052201097        0.4828171357        0.4594135770    
AX        0.6891352454       -0.2928729099       -0.6511766617    
AX       -0.3144538368       -0.3150313382       -0.3246734250    
AX       -0.7290672923        0.5466036441        0.1817813200    
    38
Energy=    -169.205253906213    
AX        0.8756508705        0.4692860213        -1.396959120    
AX         1.252428122       -0.8611904250         1.083629971    
AX       -0.2864813703        -1.261537394        0.2969014437    
AX         1.262679303        -1.213742471       -0.8429977329    
AX        -1.277387506       -0.4705695335        0.1529663281    
AX       -0.1813559793E-02     1.156444216        -1.512343352    
AX         1.313739779        0.2239448870        0.7671041847    
AX        -1.342169585        0.6981755254E-01     1.108626175    
AX       -0.3900359468        0.6511438772         1.307309087    
AX        0.7315469316         1.414884096        0.9672098104E-01
AX       -0.1931484011         1.671400515       -0.5224181655    
AX       -0.9441647205        -1.236838168       -0.5627439760    
AX        0.6551021734         1.105485969         1.238744430    
AX       -0.4881986793       -0.9571285727        -1.516411013    
AX        -1.200385539         1.500442859       -0.1160155368    
AX       -0.8412320246        0.7956644124       -0.8785173045    
AX        -1.298174865         1.147466567        0.9108947596    
AX        0.8637730207        -1.519701930        0.1670101877    
AX        -1.192187133       -0.2332891945       -0.9529108484    
AX         1.257752833        0.5250933351       -0.2839832587    
AX       -0.5336484083       -0.3439581238         1.824009918    
AX        0.1541406337        -1.086971587         1.274293206    
AX        0.6228028746       -0.6986236497        -1.631952675    
AX         1.688393256       -0.2052359424        -1.057734430    
AX       -0.2609791785         1.447865154        0.5631451104    
AX        0.1762020771        -1.238100908       -0.6887449135    
AX        0.1873761185        0.6685616380       -0.5518441804    
AX         1.552495613       -0.5567581537        0.5236336707E-02
AX       -0.1578531572        0.5183667688E-01    -1.355566360    
AX        0.4748469675       -0.4578166141E-01     1.406547053    
AX        -1.716245424        0.4855257411       -0.2261437662    
AX        -1.040998239        -1.059406388         1.104050156    
AX       -0.3931057376       -0.2826001890        0.7609614970    
AX        0.5384446745       -0.5349457429        0.3637910078    
AX        0.3052201325        0.4828171331        0.4594136157    
AX        0.6891352308       -0.2928729022       -0.6511766594    
AX       -0.3144538374       -0.3150313477       -0.3246734401    
AX       -0.7290672978        0.5466036339        0.1817812828    
    38
Energy=    -169.205253906212    
AX        0.8756509013        0.4692860596        -1.396959084    
AX         1.252428120       -0.8611903950         1.083629968    
AX       -0.2864814113        -1.261537423        0.2969014624    
AX         1.262679262        -1.213742493       -0.8429977140    
AX        -1.277387523       -0.4705695039        0.1529663565    
AX       -0.1813501871E-02     1.156444237        -1.512343357    
AX         1.313739790        0.2239448855        0.7671041545    
AX        -1.342169588        0.6981742141E-01     1.108626300    
AX       -0.3900359832        0.6511438877         1.307309049    
AX        0.7315469281         1.414884101        0.9672096943E-01
AX       -0.1931483556         1.671400546       -0.5224182217    
AX       -0.9441647611        -1.236838130       -0.5627439648    
AX        0.6551021383         1.105486013         1.238744434    
AX       -0.4881986833       -0.9571285166        -1.516410975    
AX        -1.200385468         1.500442895       -0.1160155576    
AX       -0.8412320135        0.7956644509       -0.8785173431    
AX        -1.298174982         1.147466382        0.9108946306    
AX        0.8637730248        -1.519701954        0.1670102292    
AX        -1.192187149       -0.2332891367       -0.9529108079    
AX         1.257752817        0.5250933408       -0.2839832696    
AX       -0.5336483130       -0.3439581376         1.824009926    
AX        0.1541406405        -1.086971593         1.274293198    
AX        0.6228029128       -0.6986236192        -1.631952673    
AX         1.688393236       -0.2052359723        -1.057734433    
AX       -0.2609792077         1.447865148        0.5631450579    
AX        0.1762020575        -1.238100907       -0.6887448730    
AX        0.1873761079        0.6685616423       -0.5518441477    
AX         1.552495601       -0.5567581769        0.5236333627E-02
AX       -0.1578531287        0.5183670544E-01    -1.355566361    
AX        0.4748469743       -0.4578165475E-01     1.406547023    
AX        -1.716245433        0.4855258121       -0.2261437217    
AX        -1.040998176        -1.059406435         1.104050215    
AX       -0.3931057351       -0.2826001871        0.7609614732    
AX        0.5384446496       -0.5349457706        0.3637909969    
AX        0.3052201314        0.4828171387        0.4594136092    
AX        0.6891352245       -0.2928728934       -0.6511766617    
AX       -0.3144538490       -0.3150313742       -0.3246734446    
AX       -0.7290672547        0.5466036059        0.1817812231    
    38
Energy=    -169.205253906211    
AX        0.8756509035        0.4692860683        -1.396959079    
AX         1.252428123       -0.8611903878         1.083629963    
AX       -0.2864814252        -1.261537439        0.2969014715    
AX         1.262679250        -1.213742491       -0.8429977056    
AX        -1.277387528       -0.4705694839        0.1529663647    
AX       -0.1813479119E-02     1.156444249        -1.512343355    
AX         1.313739797        0.2239448826        0.7671041453    
AX        -1.342169589        0.6981737585E-01     1.108626346    
AX       -0.3900359972        0.6511438895         1.307309034    
AX        0.7315469262         1.414884104        0.9672096391E-01
AX       -0.1931483363         1.671400552       -0.5224182347    
AX       -0.9441647768        -1.236838117       -0.5627439583    
AX        0.6551021260         1.105486026         1.238744436    
AX       -0.4881986803       -0.9571284994        -1.516410959    
AX        -1.200385443         1.500442913       -0.1160155643    
AX       -0.8412320124        0.7956644715       -0.8785173608    
AX        -1.298175022         1.147466317        0.9108945808    
AX        0.8637730319        -1.519701960        0.1670102403    
AX        -1.192187156       -0.2332891146       -0.9529107927    
AX         1.257752803        0.5250933442       -0.2839832698    
AX       -0.5336482786       -0.3439581455         1.824009930    
AX        0.1541406389        -1.086971598         1.274293199    
AX        0.6228029264       -0.6986236137        -1.631952668    
AX         1.688393228       -0.2052359761        -1.057734434    
AX       -0.2609792173         1.447865143        0.5631450396    
AX        0.1762020524        -1.238100911       -0.6887448564    
AX        0.1873760972        0.6685616395       -0.5518441443    
AX         1.552495601       -0.5567581816        0.5236335965E-02
AX       -0.1578531255        0.5183671671E-01    -1.355566359    
AX        0.4748469770       -0.4578165592E-01     1.406547009    
AX        -1.716245436        0.4855258369       -0.2261437088    
AX        -1.040998156        -1.059406443         1.104050232    
AX       -0.3931057368       -0.2826001827        0.7609614678    
AX        0.5384446433       -0.5349457779        0.3637909916    
AX        0.3052201385        0.4828171353        0.4594136147    
AX        0.6891352196       -0.2928728915       -0.6511766586    
AX       -0.3144538501       -0.3150313937       -0.3246734487    
AX       -0.7290672374        0.5466035978        0.1817811911    
    38
Energy=    -169.205253906209    
AX        0.8756508911        0.4692860680        -1.396959082    
AX         1.252428137       -0.8611903799         1.083629953    
AX       -0.2864814315        -1.261537469        0.2969014891    
AX         1.262679242        -1.213742473       -0.8429976923    
AX        -1.277387533       -0.4705694302        0.1529663681    
AX       -0.1813447583E-02     1.156444278        -1.512343351    
AX         1.313739810        0.2239448763        0.7671041430    
AX        -1.342169597        0.6981731531E-01     1.108626418    
AX       -0.3900360109        0.6511438820         1.307309010    
AX        0.7315469176         1.414884116        0.9672096391E-01
AX       -0.1931483025         1.671400549       -0.5224182459    
AX       -0.9441647957        -1.236838107       -0.5627439356    
AX        0.6551021191         1.105486025         1.238744442    
AX       -0.4881986676       -0.9571284821        -1.516410921    
AX        -1.200385416         1.500442950       -0.1160155783    
AX       -0.8412320286        0.7956645210       -0.8785174069    
AX        -1.298175064         1.147466223        0.9108945059    
AX        0.8637730544        -1.519701971        0.1670102547    
AX        -1.192187170       -0.2332890830       -0.9529107689    
AX         1.257752770        0.5250933512       -0.2839832636    
AX       -0.5336482399       -0.3439581631         1.824009937    
AX        0.1541406352        -1.086971608         1.274293208    
AX        0.6228029287       -0.6986236160        -1.631952653    
AX         1.688393218       -0.2052359624        -1.057734433    
AX       -0.2609792326         1.447865134        0.5631450221    
AX        0.1762020545        -1.238100929       -0.6887448249    
AX        0.1873760671        0.6685616273       -0.5518441480    
AX         1.552495609       -0.5567581835        0.5236343346E-02
AX       -0.1578531401        0.5183673730E-01    -1.355566359    
AX        0.4748469785       -0.4578166350E-01     1.406546993    
AX        -1.716245437        0.4855258835       -0.2261437003    
AX        -1.040998140        -1.059406443         1.104050237    
AX       -0.3931057322       -0.2826001619        0.7609614493    
AX        0.5384446354       -0.5349457898        0.3637909874    
AX        0.3052201532        0.4828171208        0.4594136186    
AX        0.6891352096       -0.2928728959       -0.6511766486    
AX       -0.3144538498       -0.3150314352       -0.3246734569    
AX       -0.7290671949        0.5466035883        0.1817811273    
    38
Energy=    -169.205253906207    
AX        0.8756508745        0.4692860611        -1.396959088    
AX         1.252428150       -0.8611903815         1.083629947    
AX       -0.2864814334        -1.261537489        0.2969015005    
AX         1.262679244        -1.213742461       -0.8429976830    
AX        -1.277387541       -0.4705693896        0.1529663718    
AX       -0.1813424174E-02     1.156444301        -1.512343347    
AX         1.313739823        0.2239448732        0.7671041469    
AX        -1.342169603        0.6981727060E-01     1.108626474    
AX       -0.3900360189        0.6511438732         1.307308995    
AX        0.7315469106         1.414884125        0.9672096802E-01
AX       -0.1931482768         1.671400551       -0.5224182484    
AX       -0.9441648102        -1.236838098       -0.5627439158    
AX        0.6551021099         1.105486022         1.238744448    
AX       -0.4881986583       -0.9571284764        -1.516410890    
AX        -1.200385397         1.500442980       -0.1160155935    
AX       -0.8412320436        0.7956645650       -0.8785174505    
AX        -1.298175094         1.147466148        0.9108944433    
AX        0.8637730720        -1.519701981        0.1670102640    
AX        -1.192187178       -0.2332890562       -0.9529107523    
AX         1.257752747        0.5250933574       -0.2839832569    
AX       -0.5336482125       -0.3439581753         1.824009944    
AX        0.1541406360        -1.086971613         1.274293213    
AX        0.6228029229       -0.6986236187        -1.631952644    
AX         1.688393213       -0.2052359478        -1.057734433    
AX       -0.2609792446         1.447865126        0.5631450161    
AX        0.1762020623        -1.238100949       -0.6887448033    
AX        0.1873760387        0.6685616182       -0.5518441577    
AX         1.552495614       -0.5567581781        0.5236347591E-02
AX       -0.1578531577        0.5183675310E-01    -1.355566361    
AX        0.4748469809       -0.4578166763E-01     1.406546985    
AX        -1.716245435        0.4855259252       -0.2261436958    
AX        -1.040998135        -1.059406442         1.104050240    
AX       -0.3931057199       -0.2826001406        0.7609614290    
AX        0.5384446254       -0.5349457930        0.3637909845    
AX        0.3052201632        0.4828171020        0.4594136262    
AX        0.6891351941       -0.2928729056       -0.6511766354    
AX       -0.3144538423       -0.3150314703       -0.3246734637    
AX       -0.7290671557        0.5466035798        0.1817810752    
    38
Energy=    -169.205253906205    
AX        0.8756508562        0.4692860267        -1.396959110    
AX         1.252428142       -0.8611904311         1.083629902    
AX       -0.2864814835        -1.261537491        0.2969015001    
AX         1.262679252        -1.213742439       -0.8429976421    
AX        -1.277387539       -0.4705693645        0.1529664203    
AX       -0.1813373319E-02     1.156444350        -1.512343326    
AX         1.313739854        0.2239448746        0.7671041583    
AX        -1.342169605        0.6981718050E-01     1.108626617    
AX       -0.3900360583        0.6511438477         1.307308976    
AX        0.7315468987         1.414884127        0.9672096713E-01
AX       -0.1931482014         1.671400586       -0.5224182382    
AX       -0.9441648480        -1.236838073       -0.5627439415    
AX        0.6551020060         1.105486089         1.238744425    
AX       -0.4881985948       -0.9571284773        -1.516410888    
AX        -1.200385363         1.500443028       -0.1160156375    
AX       -0.8412320657        0.7956646620       -0.8785175082    
AX        -1.298175184         1.147466003        0.9108943046    
AX        0.8637730512        -1.519701991        0.1670102558    
AX        -1.192187174       -0.2332889913       -0.9529107349    
AX         1.257752756        0.5250933635       -0.2839832819    
AX       -0.5336481141       -0.3439581632         1.824010010    
AX        0.1541406304        -1.086971637         1.274293199    
AX        0.6228029651       -0.6986236128        -1.631952625    
AX         1.688393181       -0.2052359523        -1.057734472    
AX       -0.2609792823         1.447865085        0.5631450018    
AX        0.1762020644        -1.238100986       -0.6887447939    
AX        0.1873760196        0.6685616102       -0.5518441352    
AX         1.552495610       -0.5567581404        0.5236346985E-02
AX       -0.1578531770        0.5183676458E-01    -1.355566355    
AX        0.4748470046       -0.4578167945E-01     1.406546984    
AX        -1.716245411        0.4855259654       -0.2261436683    
AX        -1.040998117        -1.059406389         1.104050338    
AX       -0.3931057515       -0.2826001510        0.7609614787    
AX        0.5384446353       -0.5349458278        0.3637909845    
AX        0.3052202077        0.4828170983        0.4594136015    
AX        0.6891351944       -0.2928728947       -0.6511766317    
AX       -0.3144538665       -0.3150315302       -0.3246734693    
AX       -0.7290671196        0.5466035627        0.1817809887    
    38
Energy=    -169.205253906201    
AX        0.8756508334        0.4692859879        -1.396959129    
AX         1.252428131       -0.8611904964         1.083629881    
AX       -0.2864815156        -1.261537462        0.2969014852    
AX         1.262679280        -1.213742445       -0.8429976242    
AX        -1.277387554       -0.4705693841        0.1529664667    
AX       -0.1813343278E-02     1.156444364        -1.512343308    
AX         1.313739878        0.2239448845        0.7671041793    
AX        -1.342169599        0.6981712924E-01     1.108626708    
AX       -0.3900360828        0.6511438342         1.307308980    
AX        0.7315468969         1.414884118        0.9672097381E-01
AX       -0.1931481603         1.671400635       -0.5224182121    
AX       -0.9441648781        -1.236838040       -0.5627439655    
AX        0.6551019040         1.105486156         1.238744412    
AX       -0.4881985693       -0.9571285027        -1.516410895    
AX        -1.200385338         1.500443054       -0.1160156790    
AX       -0.8412320684        0.7956647252       -0.8785175530    
AX        -1.298175248         1.147465904        0.9108941992    
AX        0.8637730233        -1.519701999        0.1670102397    
AX        -1.192187153       -0.2332889387       -0.9529107334    
AX         1.257752786        0.5250933641       -0.2839832975    
AX       -0.5336480510       -0.3439581418         1.824010066    
AX        0.1541406446        -1.086971640         1.274293176    
AX        0.6228029808       -0.6986236029        -1.631952629    
AX         1.688393170       -0.2052359613        -1.057734499    
AX       -0.2609793053         1.447865056        0.5631450136    
AX        0.1762020784        -1.238101019       -0.6887448152    
AX        0.1873760065        0.6685616130       -0.5518441345    
AX         1.552495602       -0.5567580917        0.5236334567E-02
AX       -0.1578531935        0.5183676432E-01    -1.355566355    
AX        0.4748470292       -0.4578167282E-01     1.406546992    
AX        -1.716245390        0.4855259997       -0.2261436473    
AX        -1.040998127        -1.059406366         1.104050425    
AX       -0.3931057369       -0.2826001587        0.7609614907    
AX        0.5384446204       -0.5349458288        0.3637909923    
AX        0.3052202221        0.4828170855        0.4594136076    
AX        0.6891351798       -0.2928728966       -0.6511766260    
AX       -0.3144538651       -0.3150315658       -0.3246734645    
AX       -0.7290670876        0.5466035393        0.1817809441    
    38
Energy=    -169.205253906200    
AX        0.8756508378        0.4692859814        -1.396959131    
AX         1.252428118       -0.8611905168         1.083629878    
AX       -0.2864815265        -1.261537444        0.2969014741    
AX         1.262679284        -1.213742453       -0.8429976217    
AX        -1.277387557       -0.4705694125        0.1529664832    
AX       -0.1813342382E-02     1.156444357        -1.512343303    
AX         1.313739881        0.2239448889        0.7671041821    
AX        -1.342169594        0.6981713053E-01     1.108626715    
AX       -0.3900360909        0.6511438342         1.307308985    
AX        0.7315469006         1.414884111        0.9672096941E-01
AX       -0.1931481568         1.671400653       -0.5224182034    
AX       -0.9441648850        -1.236838031       -0.5627439840    
AX        0.6551018718         1.105486184         1.238744404    
AX       -0.4881985660       -0.9571285111        -1.516410913    
AX        -1.200385335         1.500443048       -0.1160156851    
AX       -0.8412320593        0.7956647247       -0.8785175432    
AX        -1.298175262         1.147465904        0.9108941905    
AX        0.8637730052        -1.519701995        0.1670102294    
AX        -1.192187142       -0.2332889316       -0.9529107411    
AX         1.257752811        0.5250933618       -0.2839833071    
AX       -0.5336480382       -0.3439581285         1.824010082    
AX        0.1541406486        -1.086971639         1.274293165    
AX        0.6228029944       -0.6986235977        -1.631952635    
AX         1.688393168       -0.2052359748        -1.057734508    
AX       -0.2609793080         1.447865048        0.5631450167    
AX        0.1762020769        -1.238101019       -0.6887448341    
AX        0.1873760172        0.6685616195       -0.5518441274    
AX         1.552495596       -0.5567580797        0.5236328484E-02
AX       -0.1578531866        0.5183675585E-01    -1.355566352    
AX        0.4748470372       -0.4578166826E-01     1.406546997    
AX        -1.716245384        0.4855259896       -0.2261436392    
AX        -1.040998130        -1.059406361         1.104050457    
AX       -0.3931057375       -0.2826001754        0.7609615067    
AX        0.5384446182       -0.5349458249        0.3637909951    
AX        0.3052202235        0.4828170914        0.4594136072    
AX        0.6891351799       -0.2928728923       -0.6511766316    
AX       -0.3144538685       -0.3150315623       -0.3246734603    
AX       -0.7290670987        0.5466035346        0.1817809553    
    38
Energy=    -169.205253906193    
AX        0.8756508766        0.4692859912        -1.396959120    
AX         1.252428079       -0.8611905391         1.083629896    
AX       -0.2864815181        -1.261537406        0.2969014490    
AX         1.262679278        -1.213742472       -0.8429976347    
AX        -1.277387571       -0.4705694892        0.1529665066    
AX       -0.1813356902E-02     1.156444312        -1.512343296    
AX         1.313739883        0.2239448955        0.7671041797    
AX        -1.342169594        0.6981717283E-01     1.108626677    
AX       -0.3900361092        0.6511438474         1.307308997    
AX        0.7315469170         1.414884098        0.9672093760E-01
AX       -0.1931481674         1.671400679       -0.5224181944    
AX       -0.9441648996        -1.236838021       -0.5627440149    
AX        0.6551018347         1.105486238         1.238744393    
AX       -0.4881985916       -0.9571285186        -1.516410958    
AX        -1.200385338         1.500443018       -0.1160156771    
AX       -0.8412320220        0.7956646810       -0.8785174734    
AX        -1.298175281         1.147465967        0.9108942236    
AX        0.8637729785        -1.519701966        0.1670101978    
AX        -1.192187129       -0.2332889371       -0.9529107668    
AX         1.257752871        0.5250933496       -0.2839833233    
AX       -0.5336480412       -0.3439581054         1.824010101    
AX        0.1541406551        -1.086971631         1.274293139    
AX        0.6228030244       -0.6986235956        -1.631952656    
AX         1.688393180       -0.2052360142        -1.057734510    
AX       -0.2609793025         1.447865038        0.5631450139    
AX        0.1762020596        -1.238100996       -0.6887448950    
AX        0.1873760590        0.6685616338       -0.5518441138    
AX         1.552495596       -0.5567580795        0.5236315738E-02
AX       -0.1578531457        0.5183672914E-01    -1.355566336    
AX        0.4748470446       -0.4578165314E-01     1.406547001    
AX        -1.716245381        0.4855259384       -0.2261436188    
AX        -1.040998130        -1.059406371         1.104050494    
AX       -0.3931056973       -0.2826002464        0.7609615201    
AX        0.5384445747       -0.5349457721        0.3637910137    
AX        0.3052202218        0.4828171075        0.4594136208    
AX        0.6891351786       -0.2928728787       -0.6511766641    
AX       -0.3144538735       -0.3150315367       -0.3246734453    
AX       -0.7290671608        0.5466035335        0.1817810226    
    38
Energy=    -169.205253906191    
AX        0.8756507147        0.4692859000        -1.396959153    
AX         1.252428189       -0.8611905674         1.083629862    
AX       -0.2864815152        -1.261537461        0.2969015115    
AX         1.262679378        -1.213742445       -0.8429976363    
AX        -1.277387595       -0.4705692743        0.1529664843    
AX       -0.1813273961E-02     1.156444432        -1.512343309    
AX         1.313739899        0.2239448981        0.7671042366    
AX        -1.342169572        0.6981697649E-01     1.108626885    
AX       -0.3900360883        0.6511438304         1.307308992    
AX        0.7315468684         1.414884097        0.9672104644E-01
AX       -0.1931481071         1.671400689       -0.5224181765    
AX       -0.9441649050        -1.236837976       -0.5627438883    
AX        0.6551018155         1.105486170         1.238744454    
AX       -0.4881985948       -0.9571285469        -1.516410782    
AX        -1.200385263         1.500443134       -0.1160157624    
AX       -0.8412321137        0.7956648733       -0.8785177514    
AX        -1.298175307         1.147465626        0.9108939492    
AX        0.8637730608        -1.519702033        0.1670102572    
AX        -1.192187137       -0.2332888385       -0.9529106671    
AX         1.257752686        0.5250933582       -0.2839832536    
AX       -0.5336479843       -0.3439581712         1.824010060    
AX        0.1541406802        -1.086971610         1.274293178    