    38
Energy=    -169.403102763541    
AX        0.7264151921        0.2735132307        -1.680187234    
AX         1.193128429       -0.8383598074         1.068732753    
AX       -0.3578022900E-01    -1.740280149        0.3990022208    
AX         1.240474087        -1.032214134       -0.8433265701    
AX        -1.403297708       -0.2034902016        0.1676292166    
AX        0.3119111988E-01     1.154628850        -1.566600137    
AX         1.397867638        0.2638038515        0.9526779639    
AX        -1.410636469       -0.1239540927         1.250049342    
AX       -0.4349552972        0.6778541606         1.541771779    
AX        0.7484124288         1.455685689        0.1791162158    
AX       -0.1121800679         1.543176614       -0.5278784175    
AX       -0.8944349120        -1.464351742       -0.2709677963    
AX        0.6124708759         1.000516235         1.205709948    
AX       -0.6468095068       -0.9244119743        -1.243064433    
AX        -1.086040107         1.581570023       -0.7493783193E-01
AX       -0.9772454090         1.044487372        -1.112236340    
AX        -1.244910667        0.7912752423        0.6768191667    
AX         1.023913833        -1.469350308        0.1562682798    
AX        -1.270091419       -0.5776536570E-01   -0.9193628449    
AX         1.504360158        0.6945823970       -0.5011923333E-01
AX       -0.5011980869       -0.4432167911         1.714272022    
AX        0.1845070202        -1.203804190         1.340319558    
AX        0.3975798865       -0.7638058490        -1.538062405    
AX         1.500218478        0.5120338679E-01   -0.9373242927    
AX       -0.2415423750         1.196788745        0.5650255354    
AX        0.1868623635        -1.294685775       -0.5738341239    
AX        0.6278112588        0.7899174115       -0.7178420247    
AX         1.341337191       -0.3946483681        0.7817935857E-01
AX       -0.2522596135        0.1510274033        -1.206613710    
AX        0.4271946637       -0.7787207996E-01     1.308265090    
AX        -1.714791187        0.7325950534       -0.3230858010    
AX       -0.7510424927       -0.9649597136        0.7244840635    
AX       -0.4508805549        0.5223173841E-01    0.6833766269    
AX        0.3167112050       -0.6870536289        0.3991327268    
AX        0.4891810765        0.3859865554        0.2860538124    
AX        0.5177963291       -0.2574956283       -0.5895313951    
AX       -0.4745858412       -0.4772781931       -0.2771490020    
AX       -0.5647512920        0.5781540332       -0.2447620848    
    38
Energy=    -169.403102763540    
AX        0.7264151880        0.2735132105        -1.680187229    
AX         1.193128428       -0.8383598091         1.068732751    
AX       -0.3578022202E-01    -1.740280156        0.3990022308    
AX         1.240474081        -1.032214116       -0.8433265740    
AX        -1.403297713       -0.2034901976        0.1676292100    
AX        0.3119113211E-01     1.154628840        -1.566600129    
AX         1.397867648        0.2638038568        0.9526779757    
AX        -1.410636464       -0.1239540886         1.250049339    
AX       -0.4349553033        0.6778541439         1.541771777    
AX        0.7484124300         1.455685710        0.1791162211    
AX       -0.1121800630         1.543176617       -0.5278784214    
AX       -0.8944349009        -1.464351757       -0.2709677913    
AX        0.6124708706         1.000516235         1.205709946    
AX       -0.6468095249       -0.9244119829        -1.243064428    
AX        -1.086040096         1.581570036       -0.7493782384E-01
AX       -0.9772454029         1.044487376        -1.112236331    
AX        -1.244910670        0.7912752438        0.6768191569    
AX         1.023913838        -1.469350302        0.1562682760    
AX        -1.270091427       -0.5776536377E-01   -0.9193628462    
AX         1.504360161        0.6945824110       -0.5011922531E-01
AX       -0.5011980846       -0.4432168017         1.714272016    
AX        0.1845070265        -1.203804195         1.340319562    
AX        0.3975798617       -0.7638058604        -1.538062402    
AX         1.500218477        0.5120339870E-01   -0.9373242884    
AX       -0.2415423722         1.196788734        0.5650255288    
AX        0.1868623651        -1.294685778       -0.5738341174    
AX        0.6278112680        0.7899174148       -0.7178420203    
AX         1.341337178       -0.3946483531        0.7817936265E-01
AX       -0.2522596208        0.1510273974        -1.206613719    
AX        0.4271946609       -0.7787208234E-01     1.308265075    
AX        -1.714791181        0.7325950677       -0.3230858062    
AX       -0.7510424902       -0.9649597166        0.7244840620    
AX       -0.4508805545        0.5223173710E-01    0.6833766166    
AX        0.3167111992       -0.6870536339        0.3991327265    
AX        0.4891810844        0.3859865580        0.2860538160    
AX        0.5177963227       -0.2574956212       -0.5895314015    
AX       -0.4745858552       -0.4772782001       -0.2771490039    
AX       -0.5647512756        0.5781540283       -0.2447620924    
    38
Energy=    -169.403102763539    
AX        0.7264151736        0.2735131354        -1.680187173    
AX         1.193128426       -0.8383598150         1.068732732    
AX       -0.3578020150E-01    -1.740280171        0.3990022071    
AX         1.240474095        -1.032214072       -0.8433266200    
AX        -1.403297698       -0.2034901735        0.1676292225    
AX        0.3119116245E-01     1.154628801        -1.566600084    
AX         1.397867624        0.2638038463        0.9526780031    
AX        -1.410636415       -0.1239540432         1.250049352    
AX       -0.4349553193        0.6778541519         1.541771787    
AX        0.7484124562         1.455685710        0.1791162709    
AX       -0.1121800356         1.543176577       -0.5278783997    
AX       -0.8944349084        -1.464351734       -0.2709677671    
AX        0.6124708401         1.000516218         1.205709963    
AX       -0.6468095682       -0.9244119903        -1.243064415    
AX        -1.086040118         1.581570042       -0.7493789005E-01
AX       -0.9772454262         1.044487353        -1.112236371    
AX        -1.244910680        0.7912752867        0.6768191402    
AX         1.023913852        -1.469350273        0.1562682250    
AX        -1.270091468       -0.5776539003E-01   -0.9193628374    
AX         1.504360206        0.6945824285       -0.5011916258E-01
AX       -0.5011980658       -0.4432168219         1.714272041    
AX        0.1845070347        -1.203804218         1.340319544    
AX        0.3975798091       -0.7638059182        -1.538062417    
AX         1.500218517        0.5120345333E-01   -0.9373242563    
AX       -0.2415423767         1.196788735        0.5650255087    
AX        0.1868623639        -1.294685775       -0.5738341385    
AX        0.6278113417        0.7899174370       -0.7178420020    
AX         1.341337170       -0.3946483291        0.7817935820E-01
AX       -0.2522596544        0.1510273788        -1.206613710    
AX        0.4271946475       -0.7787209858E-01     1.308265061    
AX        -1.714791211        0.7325950620       -0.3230858209    
AX       -0.7510424492       -0.9649597020        0.7244840592    
AX       -0.4508805470        0.5223177185E-01    0.6833765963    
AX        0.3167111940       -0.6870536286        0.3991327052    
AX        0.4891810799        0.3859865518        0.2860538133    
AX        0.5177963148       -0.2574956344       -0.5895314429    
AX       -0.4745858352       -0.4772781689       -0.2771490028    
AX       -0.5647513316        0.5781540186       -0.2447620801    
    38
Energy=    -169.403102763537    
AX        0.7264151602        0.2735130635        -1.680187114    
AX         1.193128422       -0.8383598222         1.068732714    
AX       -0.3578018013E-01    -1.740280186        0.3990021726    
AX         1.240474119        -1.032214035       -0.8433266684    
AX        -1.403297673       -0.2034901494        0.1676292369    
AX        0.3119118807E-01     1.154628764        -1.566600041    
AX         1.397867592        0.2638038304        0.9526780276    
AX        -1.410636361       -0.1239540000         1.250049364    
AX       -0.4349553255        0.6778541687         1.541771797    
AX        0.7484124833         1.455685696        0.1791163232    
AX       -0.1121800206         1.543176536       -0.5278783730    
AX       -0.8944349173        -1.464351688       -0.2709677440    
AX        0.6124708112         1.000516202         1.205709981    
AX       -0.6468096016       -0.9244119871        -1.243064398    
AX        -1.086040147         1.581570042       -0.7493797074E-01
AX       -0.9772454514         1.044487319        -1.112236408    
AX        -1.244910692        0.7912753344        0.6768191304    
AX         1.023913863        -1.469350242        0.1562681715    
AX        -1.270091505       -0.5776542122E-01   -0.9193628277    
AX         1.504360247        0.6945824369       -0.5011909853E-01
AX       -0.5011980452       -0.4432168356         1.714272070    
AX        0.1845070393        -1.203804240         1.340319520    
AX        0.3975797681       -0.7638059805        -1.538062444    
AX         1.500218552        0.5120350480E-01   -0.9373242218    
AX       -0.2415423811         1.196788748        0.5650254926    
AX        0.1868623571        -1.294685782       -0.5738341642    
AX        0.6278114160        0.7899174305       -0.7178419731    
AX         1.341337163       -0.3946483109        0.7817934512E-01
AX       -0.2522596925        0.1510273671        -1.206613690    
AX        0.4271946286       -0.7787211783E-01     1.308265053    
AX        -1.714791247        0.7325950481       -0.3230858349    
AX       -0.7510424006       -0.9649596744        0.7244840549    
AX       -0.4508805497        0.5223179901E-01    0.6833766101    
AX        0.3167111995       -0.6870536315        0.3991326965    
AX        0.4891810818        0.3859865458        0.2860537916    
AX        0.5177963448       -0.2574956215       -0.5895314810    
AX       -0.4745858334       -0.4772781514       -0.2771490090    
AX       -0.5647514120        0.5781540396       -0.2447620904    
    38
Energy=    -169.403102763535    
AX        0.7264151550        0.2735130399        -1.680187071    
AX         1.193128421       -0.8383598299         1.068732700    
AX       -0.3578017681E-01    -1.740280178        0.3990021286    
AX         1.240474148        -1.032214040       -0.8433267028    
AX        -1.403297648       -0.2034901406        0.1676292605    
AX        0.3119118277E-01     1.154628752        -1.566600026    
AX         1.397867555        0.2638038079        0.9526780275    
AX        -1.410636329       -0.1239539670         1.250049382    
AX       -0.4349553234        0.6778542093         1.541771806    
AX        0.7484124967         1.455685646        0.1791163456    
AX       -0.1121800127         1.543176492       -0.5278783414    
AX       -0.8944349473        -1.464351630       -0.2709677346    
AX        0.6124707972         1.000516186         1.205709995    
AX       -0.6468095986       -0.9244119800        -1.243064398    
AX        -1.086040190         1.581570020       -0.7493804432E-01
AX       -0.9772454802         1.044487291        -1.112236465    
AX        -1.244910697        0.7912753659        0.6768191388    
AX         1.023913867        -1.469350234        0.1562681319    
AX        -1.270091523       -0.5776544250E-01   -0.9193628177    
AX         1.504360278        0.6945824251       -0.5011905842E-01
AX       -0.5011980350       -0.4432168293         1.714272101    
AX        0.1845070306        -1.203804247         1.340319495    
AX        0.3975797803       -0.7638060101        -1.538062467    
AX         1.500218589        0.5120352773E-01   -0.9373241946    
AX       -0.2415423940         1.196788779        0.5650254944    
AX        0.1868623513        -1.294685770       -0.5738341912    
AX        0.6278114599        0.7899174325       -0.7178419686    
AX         1.341337184       -0.3946483249        0.7817933251E-01
AX       -0.2522597070        0.1510273635        -1.206613658    
AX        0.4271946236       -0.7787212965E-01     1.308265079    
AX        -1.714791290        0.7325950163       -0.3230858358    
AX       -0.7510423694       -0.9649596527        0.7244840601    
AX       -0.4508805438        0.5223182840E-01    0.6833766314    
AX        0.3167112150       -0.6870536213        0.3991326854    
AX        0.4891810665        0.3859865379        0.2860537737    
AX        0.5177963704       -0.2574956330       -0.5895315040    
AX       -0.4745857973       -0.4772781212       -0.2771490139    
AX       -0.5647515104        0.5781540608       -0.2447620750    
    38
Energy=    -169.403102763534    
AX        0.7264151545        0.2735130477        -1.680187070    
AX         1.193128417       -0.8383598356         1.068732702    
AX       -0.3578018205E-01    -1.740280177        0.3990021134    
AX         1.240474167        -1.032214056       -0.8433267057    
AX        -1.403297638       -0.2034901409        0.1676292646    
AX        0.3119116947E-01     1.154628760        -1.566600029    
AX         1.397867542        0.2638037943        0.9526780185    
AX        -1.410636325       -0.1239539718         1.250049380    
AX       -0.4349553050        0.6778542321         1.541771807    
AX        0.7484124922         1.455685623        0.1791163374    
AX       -0.1121800218         1.543176486       -0.5278783304    
AX       -0.8944349598        -1.464351601       -0.2709677363    
AX        0.6124708051         1.000516186         1.205709990    
AX       -0.6468095802       -0.9244119705        -1.243064400    
AX        -1.086040210         1.581570014       -0.7493805798E-01
AX       -0.9772454894         1.044487284        -1.112236484    
AX        -1.244910698        0.7912753720        0.6768191506    
AX         1.023913865        -1.469350242        0.1562681270    
AX        -1.270091516       -0.5776544089E-01   -0.9193628178    
AX         1.504360270        0.6945824123       -0.5011905578E-01
AX       -0.5011980332       -0.4432168195         1.714272111    
AX        0.1845070203        -1.203804252         1.340319490    
AX        0.3975798074       -0.7638060143        -1.538062473    
AX         1.500218594        0.5120352950E-01   -0.9373241917    
AX       -0.2415424010         1.196788798        0.5650254999    
AX        0.1868623506        -1.294685766       -0.5738341971    
AX        0.6278114461        0.7899174243       -0.7178419717    
AX         1.341337200       -0.3946483437        0.7817932947E-01
AX       -0.2522596992        0.1510273678        -1.206613640    
AX        0.4271946235       -0.7787212864E-01     1.308265095    
AX        -1.714791300        0.7325950053       -0.3230858316    
AX       -0.7510423611       -0.9649596469        0.7244840637    
AX       -0.4508805450        0.5223183504E-01    0.6833766474    
AX        0.3167112215       -0.6870536187        0.3991326860    
AX        0.4891810529        0.3859865327        0.2860537656    
AX        0.5177963868       -0.2574956460       -0.5895315007    
AX       -0.4745857735       -0.4772781124       -0.2771490157    
AX       -0.5647515454        0.5781540788       -0.2447620682    
    38
Energy=    -169.403102763521    
AX        0.7264151515        0.2735130997        -1.680187123    
AX         1.193128402       -0.8383598518         1.068732739    
AX       -0.3578020332E-01    -1.740280200        0.3990021071    
AX         1.240474214        -1.032214106       -0.8433266736    
AX        -1.403297647       -0.2034901437        0.1676292487    
AX        0.3119113058E-01     1.154628804        -1.566600056    
AX         1.397867532        0.2638037663        0.9526779890    
AX        -1.410636347       -0.1239540476         1.250049345    
AX       -0.4349552172        0.6778542761         1.541771807    
AX        0.7484124596         1.455685608        0.1791162784    
AX       -0.1121800739         1.543176519       -0.5278783307    
AX       -0.8944349619        -1.464351544       -0.2709677508    
AX        0.6124708581         1.000516209         1.205709946    
AX       -0.6468095084       -0.9244119371        -1.243064402    
AX        -1.086040235         1.581570023       -0.7493802035E-01
AX       -0.9772454879         1.044487289        -1.112236474    
AX        -1.244910704        0.7912753724        0.6768191856    
AX         1.023913861        -1.469350286        0.1562681544    
AX        -1.270091480       -0.5776540340E-01   -0.9193628418    
AX         1.504360196        0.6945823737       -0.5011909240E-01
AX       -0.5011980327       -0.4432167913         1.714272116    
AX        0.1845069869        -1.203804274         1.340319514    
AX        0.3975798984       -0.7638060058        -1.538062467    
AX         1.500218562        0.5120351524E-01   -0.9373242178    
AX       -0.2415424189         1.196788835        0.5650255036    
AX        0.1868623493        -1.294685763       -0.5738341861    
AX        0.6278113183        0.7899173920       -0.7178419896    
AX         1.341337232       -0.3946483968        0.7817933011E-01
AX       -0.2522596456        0.1510273973        -1.206613614    
AX        0.4271946148       -0.7787210638E-01     1.308265109    
AX        -1.714791284        0.7325950055       -0.3230858152    
AX       -0.7510423531       -0.9649596430        0.7244840645    
AX       -0.4508805298        0.5223180280E-01    0.6833766857    
AX        0.3167111844       -0.6870535881        0.3991326731    
AX        0.4891809996        0.3859864978        0.2860537715    
AX        0.5177964163       -0.2574957126       -0.5895314441    
AX       -0.4745856731       -0.4772781678       -0.2771490028    
AX       -0.5647515628        0.5781541802       -0.2447620653    
    38
Energy=    -169.403102763526    
AX        0.7264151907        0.2735129536        -1.680186923    
AX         1.193128466       -0.8383598476         1.068732612    
AX       -0.3578018378E-01    -1.740280060        0.3990020468    
AX         1.240474104        -1.032213995       -0.8433268198    
AX        -1.403297616       -0.2034901518        0.1676293823    
AX        0.3119120760E-01     1.154628671        -1.566599965    
AX         1.397867526        0.2638038089        0.9526780487    
AX        -1.410636268       -0.1239537237         1.250049520    
AX       -0.4349555390        0.6778542086         1.541771820    
AX        0.7484125852         1.455685588        0.1791164760    
AX       -0.1121799279         1.543176279       -0.5278782667    
AX       -0.8944350340        -1.464351562       -0.2709677190    
AX        0.6124706535         1.000516097         1.205710092    
AX       -0.6468096745       -0.9244120343        -1.243064406    
AX        -1.086040231         1.581569934       -0.7493823935E-01
AX       -0.9772455491         1.044487188        -1.112236541    
AX        -1.244910720        0.7912754065        0.6768190793    
AX         1.023913876        -1.469350209        0.1562680157    
AX        -1.270091609       -0.5776555167E-01   -0.9193627605    
AX         1.504360486        0.6945824553       -0.5011896138E-01
AX       -0.5011980346       -0.4432168447         1.714272150    
AX        0.1845070592        -1.203804191         1.340319425    
AX        0.3975796753       -0.7638060262        -1.538062537    
AX         1.500218764        0.5120354463E-01   -0.9373241226    
AX       -0.2415424157         1.196788757        0.5650254712    
AX        0.1868623329        -1.294685678       -0.5738342490    
AX        0.6278118228        0.7899175380       -0.7178419754    
AX         1.341337204       -0.3946482984        0.7817928264E-01
AX       -0.2522598058        0.1510273383        -1.206613631    
AX        0.4271946401       -0.7787218878E-01     1.308265124    
AX        -1.714791432        0.7325949237       -0.3230858425    
AX       -0.7510423628       -0.9649595973        0.7244841009    
AX       -0.4508805060        0.5223189011E-01    0.6833766616    
AX        0.3167112868       -0.6870535728        0.3991326183    
AX        0.4891811398        0.3859865758        0.2860537200    
AX        0.5177963894       -0.2574955361       -0.5895315864    
AX       -0.4745857714       -0.4772781045       -0.2771490497    
AX       -0.5647517283        0.5781540150       -0.2447620517    
    38
Energy=    -169.403102763520    
AX        0.7264152103        0.2735128931        -1.680186848    
AX         1.193128500       -0.8383598487         1.068732565    
AX       -0.3578017878E-01    -1.740280001        0.3990020332    
AX         1.240474045        -1.032213940       -0.8433268756    
AX        -1.403297623       -0.2034901569        0.1676294388    
AX        0.3119124737E-01     1.154628612        -1.566599924    
AX         1.397867540        0.2638038356        0.9526780784    
AX        -1.410636246       -0.1239535889         1.250049597    
AX       -0.4349556858        0.6778541650         1.541771831    
AX        0.7484126411         1.455685606        0.1791165601    
AX       -0.1121798706         1.543176175       -0.5278782495    
AX       -0.8944350520        -1.464351573       -0.2709677088    
AX        0.6124705628         1.000516051         1.205710152    
AX       -0.6468097467       -0.9244120784        -1.243064406    
AX        -1.086040213         1.581569900       -0.7493831542E-01
AX       -0.9772455663         1.044487142        -1.112236536    
AX        -1.244910736        0.7912754221        0.6768190227    
AX         1.023913888        -1.469350185        0.1562679623    
AX        -1.270091672       -0.5776561195E-01   -0.9193627325    
AX         1.504360611        0.6945824942       -0.5011891828E-01
AX       -0.5011980376       -0.4432168714         1.714272157    
AX        0.1845070921        -1.203804154         1.340319402    
AX        0.3975795687       -0.7638060271        -1.538062564    
AX         1.500218846        0.5120354740E-01   -0.9373240929    
AX       -0.2415424161         1.196788707        0.5650254429    
AX        0.1868623214        -1.294685633       -0.5738342669    
AX        0.6278120384        0.7899176081       -0.7178419755    
AX         1.341337185       -0.3946482477        0.7817926002E-01
AX       -0.2522598700        0.1510273220        -1.206613653    
AX        0.4271946439       -0.7787222150E-01     1.308265113    
AX        -1.714791488        0.7325948953       -0.3230858546    
AX       -0.7510423718       -0.9649595721        0.7244841152    
AX       -0.4508804694        0.5223189248E-01    0.6833766494    
AX        0.3167112943       -0.6870535347        0.3991325715    
AX        0.4891811997        0.3859865962        0.2860537122    
AX        0.5177963730       -0.2574954627       -0.5895316301    
AX       -0.4745857853       -0.4772781378       -0.2771490561    
AX       -0.5647517801        0.5781539820       -0.2447620577    
    38
Energy=    -169.403102763513    
AX        0.7264152126        0.2735128082        -1.680186773    
AX         1.193128535       -0.8383598272         1.068732522    
AX       -0.3578014469E-01    -1.740279977        0.3990020486    
AX         1.240473963        -1.032213850       -0.8433269210    
AX        -1.403297647       -0.2034901474        0.1676294698    
AX        0.3119131922E-01     1.154628538        -1.566599876    
AX         1.397867568        0.2638038878        0.9526781338    
AX        -1.410636220       -0.1239534801         1.250049655    
AX       -0.4349558259        0.6778540880         1.541771842    
AX        0.7484126995         1.455685659        0.1791166555    
AX       -0.1121797956         1.543176116       -0.5278782576    
AX       -0.8944350312        -1.464351651       -0.2709676852    
AX        0.6124704753         1.000516017         1.205710219    
AX       -0.6468098604       -0.9244121382        -1.243064396    
AX        -1.086040153         1.581569886       -0.7493836512E-01
AX       -0.9772455566         1.044487126        -1.112236508    
AX        -1.244910745        0.7912754376        0.6768189559    
AX         1.023913912        -1.469350132        0.1562679202    
AX        -1.270091750       -0.5776566371E-01   -0.9193627137    
AX         1.504360738        0.6945825570       -0.5011886753E-01
AX       -0.5011980356       -0.4432169219         1.714272145    
AX        0.1845071448        -1.203804127         1.340319388    
AX        0.3975794133       -0.7638060414        -1.538062575    
AX         1.500218890        0.5120356602E-01   -0.9373240593    
AX       -0.2415423985         1.196788636        0.5650254080    
AX        0.1868623091        -1.294685617       -0.5738342747    
AX        0.6278122355        0.7899176710       -0.7178419564    
AX         1.341337124       -0.3946481526        0.7817924887E-01
AX       -0.2522599520        0.1510272912        -1.206613715    
AX        0.4271946380       -0.7787225136E-01     1.308265068    
AX        -1.714791504        0.7325949014       -0.3230858803    
AX       -0.7510423764       -0.9649595614        0.7244841084    
AX       -0.4508804350        0.5223188044E-01    0.6833765962    
AX        0.3167112731       -0.6870535092        0.3991325320    
AX        0.4891812691        0.3859866135        0.2860537293    
AX        0.5177963189       -0.2574953830       -0.5895316829    
AX       -0.4745858600       -0.4772781762       -0.2771490532    
AX       -0.5647517459        0.5781539271       -0.2447620840    
    38
Energy=    -169.403102763510    
AX        0.7264152065        0.2735127809        -1.680186750    
AX         1.193128543       -0.8383598166         1.068732512    
AX       -0.3578012617E-01    -1.740279978        0.3990020559    
AX         1.240473937        -1.032213821       -0.8433269316    
AX        -1.403297656       -0.2034901414        0.1676294716    
AX        0.3119134506E-01     1.154628516        -1.566599864    
AX         1.397867579        0.2638039072        0.9526781562    
AX        -1.410636214       -0.1239534607         1.250049667    
AX       -0.4349558544        0.6778540636         1.541771849    
AX        0.7484127148         1.455685675        0.1791166805    
AX       -0.1121797712         1.543176113       -0.5278782670    
AX       -0.8944350163        -1.464351682       -0.2709676763    
AX        0.6124704533         1.000516011         1.205710238    
AX       -0.6468098959       -0.9244121579        -1.243064395    
AX        -1.086040128         1.581569883       -0.7493837717E-01
AX       -0.9772455475         1.044487128        -1.112236499    
AX        -1.244910749        0.7912754445        0.6768189381    
AX         1.023913924        -1.469350111        0.1562679098    
AX        -1.270091779       -0.5776567529E-01   -0.9193627126    
AX         1.504360772        0.6945825767       -0.5011885206E-01
AX       -0.5011980345       -0.4432169401         1.714272140    
AX        0.1845071616        -1.203804122         1.340319385    
AX        0.3975793665       -0.7638060495        -1.538062576    
AX         1.500218892        0.5120357191E-01   -0.9373240472    
AX       -0.2415423926         1.196788615        0.5650253969    
AX        0.1868623049        -1.294685617       -0.5738342759    
AX        0.6278122772        0.7899176831       -0.7178419473    
AX         1.341337099       -0.3946481182        0.7817924752E-01
AX       -0.2522599781        0.1510272824        -1.206613739    
AX        0.4271946333       -0.7787225919E-01     1.308265052    
AX        -1.714791503        0.7325949094       -0.3230858900    
AX       -0.7510423726       -0.9649595597        0.7244841010    
AX       -0.4508804206        0.5223187259E-01    0.6833765733    
AX        0.3167112566       -0.6870534999        0.3991325219    
AX        0.4891812867        0.3859866120        0.2860537445    
AX        0.5177963024       -0.2574953649       -0.5895316996    
AX       -0.4745858948       -0.4772781893       -0.2771490477    
AX       -0.5647517222        0.5781539174       -0.2447620923    
    38
Energy=    -169.403102763492    
AX        0.7264151912        0.2735128034        -1.680186744    
AX         1.193128528       -0.8383598291         1.068732529    
AX       -0.3578011522E-01    -1.740279972        0.3990020433    
AX         1.240473938        -1.032213848       -0.8433269266    
AX        -1.403297630       -0.2034901524        0.1676294369    
AX        0.3119134140E-01     1.154628528        -1.566599888    
AX         1.397867602        0.2638039047        0.9526781718    
AX        -1.410636249       -0.1239535098         1.250049673    
AX       -0.4349557788        0.6778540821         1.541771898    
AX        0.7484127001         1.455685665        0.1791166438    
AX       -0.1121797864         1.543176154       -0.5278783069    
AX       -0.8944350044        -1.464351628       -0.2709676899    
AX        0.6124704692         1.000516008         1.205710214    
AX       -0.6468098387       -0.9244121281        -1.243064419    
AX        -1.086040129         1.581569862       -0.7493839266E-01
AX       -0.9772455515         1.044487130        -1.112236502    
AX        -1.244910775        0.7912754616        0.6768189516    
AX         1.023913937        -1.469350119        0.1562679083    
AX        -1.270091795       -0.5776568388E-01   -0.9193627209    
AX         1.504360764        0.6945825461       -0.5011888163E-01
AX       -0.5011980485       -0.4432169283         1.714272165    
AX        0.1845071394        -1.203804111         1.340319388    