    38
Energy=    -169.266920456808    
AX        0.8016969166        0.3266956723        -1.583941124    
AX         1.194908626       -0.8352078319         1.091279899    
AX       -0.6361264006E-01    -1.731922304        0.3887195644    
AX         1.244392167        -1.127814376       -0.8182574923    
AX        -1.376069958       -0.2399440572        0.1378766272    
AX        0.6105230831E-02     1.182669681        -1.584175298    
AX         1.366131876        0.2628599470        0.8789334133    
AX        -1.435521922       -0.1606524185         1.223640219    
AX       -0.4401852809        0.6856974688         1.540549646    
AX        0.7472302806         1.440352542        0.1809785452    
AX       -0.1713879934         1.645982933       -0.5121331758    
AX       -0.9114647364        -1.365118863       -0.2773052102    
AX        0.6006099136         1.002053617         1.209114270    
AX       -0.5971195752       -0.9004506150        -1.252626972    
AX        -1.139148933         1.584204395       -0.5308784056E-01
AX       -0.9842154430         1.059116056        -1.108233673    
AX        -1.257182401        0.7752288785        0.6804259534    
AX         1.008191519        -1.513966544        0.2021121188    
AX        -1.234803922       -0.5050963725E-01   -0.9337776148    
AX         1.402360371        0.5903627963       -0.1785950129    
AX       -0.5177879030       -0.4345422124         1.717228947    
AX        0.1763784705        -1.197891390         1.336936102    
AX        0.4593621014       -0.7275312208        -1.521367180    
AX         1.620497920       -0.1148212632       -0.9897207811    
AX       -0.2605731627         1.232012809        0.5768407603    
AX        0.1975858561        -1.266370724       -0.5608091986    
AX        0.4691077686        0.8227607906       -0.6792109066    
AX         1.414338476       -0.4860687642        0.7634912701E-01
AX       -0.2152791456        0.1575397389        -1.207926664    
AX        0.4185443262       -0.7612326458E-01     1.315887990    
AX        -1.715799609        0.7047884011       -0.3230190852    
AX       -0.7528686452       -0.9669013857        0.7401059541    
AX       -0.4694782168        0.4655053985E-01    0.6922814371    
AX        0.3442510864       -0.6823420851        0.4014059354    
AX        0.4392090514        0.3916649532        0.2987959904    
AX        0.6102166963       -0.2313503118       -0.5792374415    
AX       -0.4093392983       -0.4192904788       -0.2901255978    
AX       -0.5692798674        0.6182785286       -0.2359122292    
    38
Energy=    -169.266920456808    
AX        0.8016969167        0.3266956804        -1.583941119    
AX         1.194908620       -0.8352078361         1.091279899    
AX       -0.6361264302E-01    -1.731922295        0.3887195576    
AX         1.244392169        -1.127814376       -0.8182574929    
AX        -1.376069952       -0.2399440580        0.1378766304    
AX        0.6105225883E-02     1.182669680        -1.584175292    
AX         1.366131879        0.2628599397        0.8789334131    
AX        -1.435521923       -0.1606524100         1.223640224    
AX       -0.4401852864        0.6856974740         1.540549644    
AX        0.7472302853         1.440352542        0.1809785413    
AX       -0.1713879972         1.645982929       -0.5121331721    
AX       -0.9114647405        -1.365118857       -0.2773052121    
AX        0.6006099168         1.002053616         1.209114264    
AX       -0.5971195693       -0.9004506153        -1.252626975    
AX        -1.139148939         1.584204387       -0.5308784293E-01
AX       -0.9842154495         1.059116056        -1.108233673    
AX        -1.257182402        0.7752288781        0.6804259507    
AX         1.008191520        -1.513966550        0.2021121183    
AX        -1.234803916       -0.5050964131E-01   -0.9337776073    
AX         1.402360374        0.5903627938       -0.1785950176    
AX       -0.5177879052       -0.4345422052         1.717228950    
AX        0.1763784632        -1.197891387         1.336936101    
AX        0.4593621078       -0.7275312121        -1.521367182    
AX         1.620497925       -0.1148212665       -0.9897207850    
AX       -0.2605731610         1.232012810        0.5768407566    
AX        0.1975858604        -1.266370726       -0.5608092063    
AX        0.4691077643        0.8227607926       -0.6792108999    
AX         1.414338473       -0.4860687676        0.7634912638E-01
AX       -0.2152791471        0.1575397373        -1.207926662    
AX        0.4185443262       -0.7612326435E-01     1.315887993    
AX        -1.715799618        0.7047883957       -0.3230190866    
AX       -0.7528686488       -0.9669013818        0.7401059577    
AX       -0.4694782128        0.4655054074E-01    0.6922814357    
AX        0.3442510936       -0.6823420891        0.4014059394    
AX        0.4392090559        0.3916649521        0.2987959929    
AX        0.6102167028       -0.2313503112       -0.5792374440    
AX       -0.4093392992       -0.4192904779       -0.2901255975    
AX       -0.5692798695        0.6182785242       -0.2359122293    
    38
Energy=    -169.266920456807    
AX        0.8016969230        0.3266956897        -1.583941110    
AX         1.194908615       -0.8352078517         1.091279899    
AX       -0.6361264851E-01    -1.731922278        0.3887195507    
AX         1.244392174        -1.127814375       -0.8182574957    
AX        -1.376069949       -0.2399440587        0.1378766362    
AX        0.6105207452E-02     1.182669677        -1.584175287    
AX         1.366131879        0.2628599222        0.8789334124    
AX        -1.435521926       -0.1606524032         1.223640230    
AX       -0.4401852928        0.6856974836         1.540549637    
AX        0.7472302927         1.440352546        0.1809785330    
AX       -0.1713880010         1.645982920       -0.5121331691    
AX       -0.9114647382        -1.365118843       -0.2773052154    
AX        0.6006099220         1.002053612         1.209114259    
AX       -0.5971195609       -0.9004506164        -1.252626975    
AX        -1.139148949         1.584204372       -0.5308784937E-01
AX       -0.9842154632         1.059116054        -1.108233666    
AX        -1.257182398        0.7752288783        0.6804259458    
AX         1.008191521        -1.513966568        0.2021121095    
AX        -1.234803905       -0.5050964459E-01   -0.9337776036    
AX         1.402360376        0.5903627907       -0.1785950221    
AX       -0.5177879078       -0.4345421861         1.717228959    
AX        0.1763784481        -1.197891379         1.336936110    
AX        0.4593621170       -0.7275312039        -1.521367185    
AX         1.620497938       -0.1148212696       -0.9897207870    
AX       -0.2605731599         1.232012815        0.5768407465    
AX        0.1975858609        -1.266370717       -0.5608092142    
AX        0.4691077575        0.8227608118       -0.6792108801    
AX         1.414338472       -0.4860687767        0.7634911669E-01
AX       -0.2152791541        0.1575397316        -1.207926662    
AX        0.4185443263       -0.7612326516E-01     1.315887995    
AX        -1.715799631        0.7047883863       -0.3230190870    
AX       -0.7528686586       -0.9669013786        0.7401059642    
AX       -0.4694781985        0.4655053742E-01    0.6922814341    
AX        0.3442510940       -0.6823420829        0.4014059273    
AX        0.4392090521        0.3916649481        0.2987959955    
AX        0.6102167244       -0.2313503181       -0.5792374367    
AX       -0.4093392811       -0.4192905088       -0.2901255924    
AX       -0.5692798758        0.6182785467       -0.2359122232    
    38
Energy=    -169.266920456806    
AX        0.8016969405        0.3266956070        -1.583941100    
AX         1.194908619       -0.8352078743         1.091279863    
AX       -0.6361261326E-01    -1.731922313        0.3887195936    
AX         1.244392176        -1.127814366       -0.8182575217    
AX        -1.376069978       -0.2399440802        0.1378766032    
AX        0.6105177099E-02     1.182669612        -1.584175367    
AX         1.366131839        0.2628599061        0.8789334084    
AX        -1.435521966       -0.1606524919         1.223640191    
AX       -0.4401852526        0.6856974718         1.540549618    
AX        0.7472302522         1.440352590        0.1809785511    
AX       -0.1713879962         1.645982972       -0.5121332192    
AX       -0.9114646833        -1.365118898       -0.2773051966    
AX        0.6006099190         1.002053605         1.209114272    
AX       -0.5971196288       -0.9004506230        -1.252626952    
AX        -1.139148911         1.584204412       -0.5308782065E-01
AX       -0.9842154416         1.059116087        -1.108233628    
AX        -1.257182365        0.7752288522        0.6804259679    
AX         1.008191508        -1.513966548        0.2021120692    
AX        -1.234803923       -0.5050959661E-01   -0.9337776424    
AX         1.402360354        0.5903628202       -0.1785949665    
AX       -0.5177879236       -0.4345421672         1.717228953    
AX        0.1763784526        -1.197891349         1.336936119    
AX        0.4593620509       -0.7275312698        -1.521367171    
AX         1.620497982       -0.1148212380       -0.9897207276    
AX       -0.2605731641         1.232012877        0.5768407850    
AX        0.1975858529        -1.266370697       -0.5608091856    
AX        0.4691078032        0.8227608317       -0.6792109348    
AX         1.414338520       -0.4860687813        0.7634910931E-01
AX       -0.2152791255        0.1575397277        -1.207926629    
AX        0.4185443192       -0.7612328088E-01     1.315887972    
AX        -1.715799578        0.7047884111       -0.3230190600    
AX       -0.7528686643       -0.9669014260        0.7401059647    
AX       -0.4694782318        0.4655049671E-01    0.6922814445    
AX        0.3442510939       -0.6823420795        0.4014059214    
AX        0.4392090066        0.3916649912        0.2987959634    
AX        0.6102167231       -0.2313502883       -0.5792374437    
AX       -0.4093393117       -0.4192904637       -0.2901256061    
AX       -0.5692798304        0.6182785606       -0.2359121983    
    38
Energy=    -169.266920456805    
AX        0.8016969484        0.3266955694        -1.583941109    
AX         1.194908626       -0.8352078725         1.091279855    
AX       -0.6361259827E-01    -1.731922336        0.3887196141    
AX         1.244392171        -1.127814358       -0.8182575274    
AX        -1.376069991       -0.2399440875        0.1378765876    
AX        0.6105180354E-02     1.182669596        -1.584175398    
AX         1.366131824        0.2628599126        0.8789334070    
AX        -1.435521976       -0.1606525280         1.223640172    
AX       -0.4401852331        0.6856974615         1.540549619    
AX        0.7472302338         1.440352599        0.1809785553    
AX       -0.1713879839         1.645982982       -0.5121332389    
AX       -0.9114646608        -1.365118919       -0.2773051886    
AX        0.6006099150         1.002053607         1.209114280    
AX       -0.5971196557       -0.9004506225        -1.252626941    
AX        -1.139148892         1.584204433       -0.5308780533E-01
AX       -0.9842154255         1.059116097        -1.108233619    
AX        -1.257182358        0.7752288495        0.6804259786    
AX         1.008191505        -1.513966534        0.2021120607    
AX        -1.234803932       -0.5050957621E-01   -0.9337776622    
AX         1.402360345        0.5903628309       -0.1785949471    
AX       -0.5177879267       -0.4345421774         1.717228947    
AX        0.1763784650        -1.197891347         1.336936119    
AX        0.4593620224       -0.7275312975        -1.521367161    
AX         1.620497985       -0.1148212247       -0.9897207037    
AX       -0.2605731701         1.232012893        0.5768407985    
AX        0.1975858452        -1.266370691       -0.5608091670    
AX        0.4691078174        0.8227608480       -0.6792109542    
AX         1.414338532       -0.4860687765        0.7634910460E-01
AX       -0.2152791248        0.1575397270        -1.207926629    
AX        0.4185443160       -0.7612328393E-01     1.315887963    
AX        -1.715799553        0.7047884285       -0.3230190475    
AX       -0.7528686611       -0.9669014432        0.7401059600    
AX       -0.4694782413        0.4655048031E-01    0.6922814423    
AX        0.3442510854       -0.6823420717        0.4014059162    
AX        0.4392089808        0.3916650037        0.2987959573    
AX        0.6102167233       -0.2313502902       -0.5792374399    
AX       -0.4093393247       -0.4192904598       -0.2901256094    
AX       -0.5692798140        0.6182785759       -0.2359121900    
    38
Energy=    -169.266920456803    
AX        0.8016969401        0.3266955071        -1.583941148    
AX         1.194908648       -0.8352078272         1.091279860    
AX       -0.6361257144E-01    -1.731922397        0.3887196400    
AX         1.244392148        -1.127814344       -0.8182575227    
AX        -1.376070011       -0.2399440993        0.1378765651    
AX        0.6105236441E-02     1.182669581        -1.584175435    
AX         1.366131814        0.2628599603        0.8789334087    
AX        -1.435521980       -0.1606525716         1.223640138    
AX       -0.4401852025        0.6856974288         1.540549638    
AX        0.7472301997         1.440352593        0.1809785629    
AX       -0.1713879557         1.645982989       -0.5121332645    
AX       -0.9114646424        -1.365118961       -0.2773051741    
AX        0.6006099055         1.002053620         1.209114289    
AX       -0.5971196971       -0.9004506171        -1.252626931    
AX        -1.139148846         1.584204477       -0.5308776583E-01
AX       -0.9842153728         1.059116116        -1.108233625    
AX        -1.257182368        0.7752288507        0.6804260020    
AX         1.008191516        -1.513966487        0.2021120823    
AX        -1.234803959       -0.5050954367E-01   -0.9337776839    
AX         1.402360335        0.5903628488       -0.1785949281    
AX       -0.5177879291       -0.4345422426         1.717228915    
AX        0.1763785104        -1.197891374         1.336936099    
AX        0.4593619730       -0.7275313334        -1.521367136    
AX         1.620497956       -0.1148212084       -0.9897206727    
AX       -0.2605731870         1.232012895        0.5768408286    
AX        0.1975858285        -1.266370699       -0.5608091307    
AX        0.4691078405        0.8227608483       -0.6792110062    
AX         1.414338522       -0.4860687422        0.7634911060E-01
AX       -0.2152791299        0.1575397378        -1.207926640    
AX        0.4185443088       -0.7612327613E-01     1.315887955    
AX        -1.715799500        0.7047884730       -0.3230190315    
AX       -0.7528686344       -0.9669014678        0.7401059418    
AX       -0.4694782663        0.4655047335E-01    0.6922814346    
AX        0.3442510553       -0.6823420538        0.4014059066    
AX        0.4392089550        0.3916650103        0.2987959579    
AX        0.6102166855       -0.2313502943       -0.5792374317    
AX       -0.4093393417       -0.4192904487       -0.2901256127    
AX       -0.5692797830        0.6182785774       -0.2359121956    
    38
Energy=    -169.266920456800    
AX        0.8016969345        0.3266954683        -1.583941174    
AX         1.194908661       -0.8352077971         1.091279865    
AX       -0.6361255408E-01    -1.731922434        0.3887196549    
AX         1.244392130        -1.127814333       -0.8182575200    
AX        -1.376070019       -0.2399441081        0.1378765499    
AX        0.6105276700E-02     1.182669576        -1.584175451    
AX         1.366131805        0.2628599891        0.8789334073    
AX        -1.435521980       -0.1606525960         1.223640116    
AX       -0.4401851823        0.6856974088         1.540549652    
AX        0.7472301797         1.440352587        0.1809785622    
AX       -0.1713879322         1.645982982       -0.5121332808    
AX       -0.9114646318        -1.365118986       -0.2773051655    
AX        0.6006099000         1.002053630         1.209114292    
AX       -0.5971197208       -0.9004506140        -1.252626926    
AX        -1.139148820         1.584204503       -0.5308773991E-01
AX       -0.9842153411         1.059116129        -1.108233635    
AX        -1.257182377        0.7752288567        0.6804260173    
AX         1.008191526        -1.513966460        0.2021120972    
AX        -1.234803975       -0.5050952101E-01   -0.9337776947    
AX         1.402360331        0.5903628564       -0.1785949186    
AX       -0.5177879311       -0.4345422875         1.717228896    
AX        0.1763785396        -1.197891394         1.336936086    
AX        0.4593619430       -0.7275313503        -1.521367114    
AX         1.620497939       -0.1148211991       -0.9897206540    
AX       -0.2605731984         1.232012898        0.5768408462    
AX        0.1975858209        -1.266370707       -0.5608091086    
AX        0.4691078425        0.8227608596       -0.6792110425    
AX         1.414338514       -0.4860687220        0.7634911409E-01
AX       -0.2152791354        0.1575397462        -1.207926652    
AX        0.4185443028       -0.7612326983E-01     1.315887953    
AX        -1.715799468        0.7047885021       -0.3230190203    
AX       -0.7528686180       -0.9669014779        0.7401059326    
AX       -0.4694782802        0.4655046024E-01    0.6922814216    
AX        0.3442510360       -0.6823420394        0.4014059005    
AX        0.4392089338        0.3916650116        0.2987959680    
AX        0.6102166637       -0.2313503060       -0.5792374257    
AX       -0.4093393489       -0.4192904358       -0.2901256098    
AX       -0.5692797653        0.6182785748       -0.2359121998    
    38
Energy=    -169.266920456796    
AX        0.8016969494        0.3266953981        -1.583941183    
AX         1.194908665       -0.8352077774         1.091279860    
AX       -0.6361249646E-01    -1.731922446        0.3887197115    
AX         1.244392101        -1.127814287       -0.8182575542    
AX        -1.376070022       -0.2399441243        0.1378764900    
AX        0.6105352026E-02     1.182669624        -1.584175472    
AX         1.366131732        0.2628599740        0.8789333774    
AX        -1.435521980       -0.1606526485         1.223640060    
AX       -0.4401851321        0.6856973466         1.540549644    
AX        0.7472301543         1.440352574        0.1809784950    
AX       -0.1713879296         1.645982948       -0.5121332857    
AX       -0.9114645525        -1.365119000       -0.2773051326    
AX        0.6006099020         1.002053665         1.209114260    
AX       -0.5971197822       -0.9004506111        -1.252626883    
AX        -1.139148783         1.584204541       -0.5308769964E-01
AX       -0.9842152917         1.059116145        -1.108233673    
AX        -1.257182379        0.7752288815        0.6804260684    
AX         1.008191564        -1.513966451        0.2021120825    
AX        -1.234803961       -0.5050943772E-01   -0.9337777066    
AX         1.402360267        0.5903628442       -0.1785949154    
AX       -0.5177879582       -0.4345423574         1.717228903    
AX        0.1763785827        -1.197891393         1.336936095    
AX        0.4593618542       -0.7275313587        -1.521367056    
AX         1.620497978       -0.1148211666       -0.9897206178    
AX       -0.2605732259         1.232012943        0.5768408563    
AX        0.1975858086        -1.266370726       -0.5608090723    
AX        0.4691078415        0.8227607930       -0.6792110564    
AX         1.414338545       -0.4860687429        0.7634910813E-01
AX       -0.2152791475        0.1575397494        -1.207926699    
AX        0.4185442523       -0.7612326134E-01     1.315887962    
AX        -1.715799441        0.7047885653       -0.3230189862    
AX       -0.7528686147       -0.9669015356        0.7401059476    
AX       -0.4694783103        0.4655045947E-01    0.6922814299    
AX        0.3442510671       -0.6823420533        0.4014059361    
AX        0.4392088428        0.3916650421        0.2987959637    
AX        0.6102166864       -0.2313502913       -0.5792374096    
AX       -0.4093393521       -0.4192904449       -0.2901256611    
AX       -0.5692797860        0.6182786204       -0.2359121857    
    38
Energy=    -169.266920456789    
AX        0.8016969912        0.3266953773        -1.583941108    
AX         1.194908654       -0.8352078718         1.091279817    
AX       -0.6361244737E-01    -1.731922353        0.3887197752    
AX         1.244392096        -1.127814226       -0.8182576458    
AX        -1.376069997       -0.2399441257        0.1378764378    
AX        0.6105340277E-02     1.182669681        -1.584175442    
AX         1.366131615        0.2628598449        0.8789333175    
AX        -1.435521976       -0.1606526843         1.223640005    
AX       -0.4401850981        0.6856973402         1.540549603    
AX        0.7472301743         1.440352576        0.1809784112    
AX       -0.1713879471         1.645982877       -0.5121332707    
AX       -0.9114644558        -1.365118997       -0.2773051057    
AX        0.6006099093         1.002053676         1.209114215    
AX       -0.5971198092       -0.9004506395        -1.252626844    
AX        -1.139148805         1.584204527       -0.5308771427E-01
AX       -0.9842153312         1.059116137        -1.108233710    
AX        -1.257182354        0.7752289040        0.6804261125    
AX         1.008191602        -1.513966542        0.2021119608    
AX        -1.234803910       -0.5050935272E-01   -0.9337777107    
AX         1.402360193        0.5903628006       -0.1785949057    
AX       -0.5177880002       -0.4345422982         1.717228985    
AX        0.1763785436        -1.197891316         1.336936179    
AX        0.4593617932       -0.7275313297        -1.521367000    
AX         1.620498119       -0.1148211205       -0.9897205907    
AX       -0.2605732233         1.232013053        0.5768408505    
AX        0.1975858361        -1.266370731       -0.5608090660    
AX        0.4691077661        0.8227607466       -0.6792110533    
AX         1.414338632       -0.4860688408        0.7634906741E-01
AX       -0.2152791306        0.1575397488        -1.207926742    
AX        0.4185442163       -0.7612327437E-01     1.315887995    
AX        -1.715799487        0.7047885770       -0.3230189610    
AX       -0.7528686717       -0.9669015414        0.7401060078    
AX       -0.4694783690        0.4655039480E-01    0.6922814281    
AX        0.3442511241       -0.6823420529        0.4014059254    
AX        0.4392087647        0.3916650788        0.2987959667    
AX        0.6102167612       -0.2313502852       -0.5792373674    
AX       -0.4093392657       -0.4192903889       -0.2901256552    
AX       -0.5692798523        0.6182786306       -0.2359121675    
    38
Energy=    -169.266920456779    
AX        0.8016970319        0.3266953786        -1.583941040    
AX         1.194908633       -0.8352079714         1.091279771    
AX       -0.6361240947E-01    -1.731922260        0.3887198227    
AX         1.244392105        -1.127814181       -0.8182577364    
AX        -1.376069972       -0.2399441183        0.1378764016    
AX        0.6105304379E-02     1.182669717        -1.584175425    
AX         1.366131544        0.2628597262        0.8789332806    
AX        -1.435521992       -0.1606527038         1.223639978    
AX       -0.4401850902        0.6856973644         1.540549569    
AX        0.7472301963         1.440352576        0.1809783611    
AX       -0.1713879699         1.645982835       -0.5121332489    
AX       -0.9114643799        -1.365118985       -0.2773050815    
AX        0.6006099186         1.002053667         1.209114191    
AX       -0.5971198216       -0.9004506630        -1.252626807    
AX        -1.139148835         1.584204498       -0.5308773700E-01
AX       -0.9842153748         1.059116129        -1.108233729    
AX        -1.257182338        0.7752289199        0.6804261256    
AX         1.008191628        -1.513966616        0.2021118390    
AX        -1.234803862       -0.5050931155E-01   -0.9337777110    
AX         1.402360142        0.5903627711       -0.1785948983    
AX       -0.5177880384       -0.4345422011         1.717229059    
AX        0.1763784865        -1.197891227         1.336936254    
AX        0.4593617546       -0.7275313006        -1.521366984    
AX         1.620498231       -0.1148210841       -0.9897205787    
AX       -0.2605732217         1.232013114        0.5768408278    
AX        0.1975858618        -1.266370730       -0.5608090782    
AX        0.4691077242        0.8227607153       -0.6792109989    
AX         1.414338705       -0.4860689232        0.7634902751E-01
AX       -0.2152791232        0.1575397329        -1.207926762    
AX        0.4185441908       -0.7612329864E-01     1.315888019    
AX        -1.715799537        0.7047885695       -0.3230189550    
AX       -0.7528687210       -0.9669015341        0.7401060590    
AX       -0.4694783869        0.4655035884E-01    0.6922814411    
AX        0.3442511901       -0.6823420740        0.4014059417    
AX        0.4392087186        0.3916651046        0.2987959524    
AX        0.6102168408       -0.2313502743       -0.5792373519    
AX       -0.4093392264       -0.4192903719       -0.2901256591    
AX       -0.5692799074        0.6182786517       -0.2359121414    
    38
Energy=    -169.266920456752    
AX        0.8016970758        0.3266953505        -1.583941034    
AX         1.194908583       -0.8352080514         1.091279740    
AX       -0.6361213826E-01    -1.731922181        0.3887199927    
AX         1.244392122        -1.127814079       -0.8182580206    
AX        -1.376069932       -0.2399440531        0.1378763551    
AX        0.6105510084E-02     1.182669760        -1.584175455    
AX         1.366131483        0.2628595682        0.8789333095    
AX        -1.435522211       -0.1606527719         1.223639924    
AX       -0.4401851282        0.6856974364         1.540549636    
AX        0.7472301335         1.440352573        0.1809783008    
AX       -0.1713879936         1.645982832       -0.5121331783    
AX       -0.9114641876        -1.365119120       -0.2773048918    
AX        0.6006099536         1.002053630         1.209114118    
AX       -0.5971200718       -0.9004507320        -1.252626695    
AX        -1.139148840         1.584204554       -0.5308765170E-01
AX       -0.9842151859         1.059116194        -1.108233785    
AX        -1.257182442        0.7752289340        0.6804261275    
AX         1.008191812        -1.513966590        0.2021115848    
AX        -1.234803851       -0.5050921823E-01   -0.9337777225    
AX         1.402360118        0.5903627756       -0.1785948451    
AX       -0.5177882513       -0.4345420754         1.717229128    
AX        0.1763784163        -1.197891042         1.336936502    
AX        0.4593614293       -0.7275312866        -1.521367132    
AX         1.620498368       -0.1148209451       -0.9897205949    
AX       -0.2605732476         1.232012981        0.5768408109    
AX        0.1975858983        -1.266370771       -0.5608091331    
AX        0.4691077366        0.8227605873       -0.6792108934    
AX         1.414338835       -0.4860689666        0.7634895311E-01
AX       -0.2152791179        0.1575396899        -1.207926760    
AX        0.4185440666       -0.7612331140E-01     1.315888044    
AX        -1.715799538        0.7047886768       -0.3230190244    
AX       -0.7528686478       -0.9669015126        0.7401061270    
AX       -0.4694783769        0.4655036383E-01    0.6922814015    
AX        0.3442512128       -0.6823420857        0.4014059339    
AX        0.4392086443        0.3916649747        0.2987958867    
AX        0.6102169344       -0.2313503195       -0.5792374047    
AX       -0.4093391568       -0.4192903457       -0.2901255741    
AX       -0.5692800132        0.6182785763       -0.2359120785    
    38
Energy=    -169.266920456717    
AX        0.8016971311        0.3266953302        -1.583941022    
AX         1.194908506       -0.8352080948         1.091279730    
AX       -0.6361176827E-01    -1.731922116        0.3887201798    
AX         1.244392137        -1.127813974       -0.8182583865    
AX        -1.376069880       -0.2399439781        0.1378763388    
AX        0.6105841906E-02     1.182669791        -1.584175465    
AX         1.366131417        0.2628594039        0.8789333425    
AX        -1.435522502       -0.1606528177         1.223639847    
AX       -0.4401851753        0.6856975123         1.540549679    
AX        0.7472300131         1.440352550        0.1809782600    
AX       -0.1713879923         1.645982794       -0.5121331115    
AX       -0.9114639527        -1.365119265       -0.2773046271    
AX        0.6006099960         1.002053566         1.209113995    
AX       -0.5971203986       -0.9004507963        -1.252626521    
AX        -1.139148870         1.584204655       -0.5308751581E-01
AX       -0.9842148888         1.059116291        -1.108233804    
AX        -1.257182567        0.7752288819        0.6804261273    
AX         1.008192055        -1.513966482        0.2021113073    
AX        -1.234803855       -0.5050911407E-01   -0.9337777248    
AX         1.402360121        0.5903627370       -0.1785947611    
AX       -0.5177885489       -0.4345419215         1.717229168    
AX        0.1763783349        -1.197890831         1.336936779    