    38
Energy=    -170.992492629053    
AX        0.8179414840        0.4980042981        -1.376558955    
AX         1.369283111       -0.6557317622         1.117521293    
AX       -0.2790115513        -1.432693120        0.5537201837    
AX         1.113552996        -1.109432473       -0.5747095067    
AX        -1.555228811       -0.1905041843        0.2471359148    
AX       -0.5837485350E-02     1.249281018        -1.592175528    
AX         1.263441638        0.2944631822        0.6217533589    
AX        -1.287465934       -0.1116842692         1.322925856    
AX       -0.4822855022        0.6059814346         1.111924651    
AX        0.9187521221         1.123921566       -0.6407989740E-02
AX       -0.2394704227         1.816234425       -0.6487885947    
AX       -0.9588775553       -0.9967925182       -0.2211102425    
AX        0.5790349289        0.9888592539         1.146533870    
AX       -0.5763572747       -0.8816468332        -1.269029916    
AX        -1.138532920         1.557237628       -0.3208919794E-01
AX       -0.9208159707        0.9915306966       -0.9783359809    
AX        -1.509556750        0.8212056291        0.7432669340    
AX         1.212732467        -1.526759497        0.4412572357    
AX        -1.184304557       -0.7587235058E-01   -0.8056996409    
AX         1.813425152        0.5298314023       -0.3455939106    
AX       -0.4780342611       -0.8566461362         1.543154731    
AX        0.5046118130        -1.281506192         1.288431198    
AX        0.4933362147       -0.5621982067        -1.270748935    
AX         1.620426638       -0.2840769543        -1.119340144    
AX       -0.1243130524         1.365231304        0.3544311474    
AX        0.6715550513E-01    -1.326404153       -0.4801967703    
AX        0.9085807695E-01    0.7794155172       -0.6108967715    
AX         1.722226277       -0.5211107051        0.7353245244E-01
AX       -0.2966190858        0.1866258483        -1.439953983    
AX        0.3642495769       -0.1568570713         1.287682041    
AX        -1.801120990        0.7213205719       -0.3386605708    
AX        -1.306118654        -1.109773775        0.8304457356    
AX       -0.5151051163       -0.3729934037        0.5798590343    
AX        0.5342373325       -0.6928888404        0.3316687408    
AX        0.2329036998        0.3496312037        0.3547474706    
AX        0.8755662407        0.8992507591E-02   -0.4076324235    
AX       -0.1682894665       -0.2700451220       -0.4430373151    
AX       -0.7663899138        0.5278500818        0.1097452667E-01
    38
Energy=    -170.992492629052    
AX        0.8179414696        0.4980042925        -1.376558971    
AX         1.369283107       -0.6557317522         1.117521320    
AX       -0.2790115605        -1.432693118        0.5537201805    
AX         1.113553006        -1.109432477       -0.5747095129    
AX        -1.555228814       -0.1905041781        0.2471359175    
AX       -0.5837489684E-02     1.249281015        -1.592175536    
AX         1.263441633        0.2944631833        0.6217533719    
AX        -1.287465929       -0.1116842727         1.322925855    
AX       -0.4822855012        0.6059814313         1.111924646    
AX        0.9187521330         1.123921558       -0.6407994041E-02
AX       -0.2394704248         1.816234424       -0.6487886009    
AX       -0.9588775603       -0.9967925129       -0.2211102443    
AX        0.5790349241        0.9888592637         1.146533864    
AX       -0.5763572880       -0.8816468345        -1.269029916    
AX        -1.138532921         1.557237632       -0.3208919879E-01
AX       -0.9208159703        0.9915306951       -0.9783359761    
AX        -1.509556746        0.8212056324        0.7432669377    
AX         1.212732521        -1.526759473        0.4412572417    
AX        -1.184304569       -0.7587234629E-01   -0.8056996383    
AX         1.813425170        0.5298313849       -0.3455938796    
AX       -0.4780342683       -0.8566461569         1.543154725    
AX        0.5046118146        -1.281506203         1.288431181    
AX        0.4933362040       -0.5621982157        -1.270748930    
AX         1.620426633       -0.2840769501        -1.119340161    
AX       -0.1243130500         1.365231310        0.3544311444    
AX        0.6715550876E-01    -1.326404148       -0.4801967675    
AX        0.9085807930E-01    0.7794155192       -0.6108967751    
AX         1.722226272       -0.5211107109        0.7353246834E-01
AX       -0.2966190931        0.1866258467        -1.439953975    
AX        0.3642495608       -0.1568570803         1.287682037    
AX        -1.801120993        0.7213205806       -0.3386605649    
AX        -1.306118658        -1.109773770        0.8304457285    
AX       -0.5151051181       -0.3729934145        0.5798590414    
AX        0.5342373452       -0.6928888389        0.3316687346    
AX        0.2329037198        0.3496312050        0.3547474661    
AX        0.8755662350        0.8992508796E-02   -0.4076324241    
AX       -0.1682894630       -0.2700451190       -0.4430373207    
AX       -0.7663899182        0.5278500906        0.1097452459E-01
    38
Energy=    -170.992492629052    
AX        0.8179414423        0.4980042581        -1.376559002    
AX         1.369283106       -0.6557317210         1.117521391    
AX       -0.2790115778        -1.432693122        0.5537201648    
AX         1.113553034        -1.109432483       -0.5747095326    
AX        -1.555228820       -0.1905041545        0.2471359234    
AX       -0.5837488077E-02     1.249280985        -1.592175547    
AX         1.263441648        0.2944631982        0.6217533977    
AX        -1.287465919       -0.1116842854         1.322925850    
AX       -0.4822854936        0.6059814353         1.111924639    
AX        0.9187521447         1.123921545       -0.6408018377E-02
AX       -0.2394704420         1.816234410       -0.6487885999    
AX       -0.9588775666       -0.9967924858       -0.2211102475    
AX        0.5790349399        0.9888592751         1.146533861    
AX       -0.5763573218       -0.8816468349        -1.269029901    
AX        -1.138532928         1.557237648       -0.3208920188E-01
AX       -0.9208159786        0.9915306958       -0.9783359844    
AX        -1.509556746        0.8212056482        0.7432669418    
AX         1.212732637        -1.526759424        0.4412572547    
AX        -1.184304591       -0.7587232681E-01   -0.8056996267    
AX         1.813425214        0.5298313432       -0.3455938107    
AX       -0.4780342761       -0.8566462195         1.543154707    
AX        0.5046118290        -1.281506229         1.288431136    
AX        0.4933361794       -0.5621982418        -1.270748920    
AX         1.620426618       -0.2840769169        -1.119340188    
AX       -0.1243130375         1.365231316        0.3544311452    
AX        0.6715552047E-01    -1.326404122       -0.4801967628    
AX        0.9085807470E-01    0.7794155105       -0.6108967862    
AX         1.722226232       -0.5211107271        0.7353251798E-01
AX       -0.2966191230        0.1866258275        -1.439953982    
AX        0.3642495339       -0.1568571048         1.287682029    
AX        -1.801121010        0.7213206086       -0.3386605648    
AX        -1.306118678        -1.109773779        0.8304457036    
AX       -0.5151051086       -0.3729934046        0.5798590352    
AX        0.5342373733       -0.6928888446        0.3316687276    
AX        0.2329037153        0.3496312027        0.3547474655    
AX        0.8755662474        0.8992517683E-02   -0.4076324346    
AX       -0.1682894736       -0.2700451000       -0.4430373128    
AX       -0.7663899095        0.5278501010        0.1097453225E-01
    38
Energy=    -170.992492629051    
AX        0.8179414380        0.4980042413        -1.376559012    
AX         1.369283104       -0.6557317026         1.117521414    
AX       -0.2790115821        -1.432693124        0.5537201561    
AX         1.113553038        -1.109432483       -0.5747095360    
AX        -1.555228817       -0.1905041454        0.2471359280    
AX       -0.5837490235E-02     1.249280968        -1.592175550    
AX         1.263441651        0.2944632121        0.6217534033    
AX        -1.287465914       -0.1116842934         1.322925847    
AX       -0.4822854946        0.6059814416         1.111924637    
AX        0.9187521460         1.123921543       -0.6408031883E-02
AX       -0.2394704433         1.816234406       -0.6487885976    
AX       -0.9588775694       -0.9967924763       -0.2211102472    
AX        0.5790349470        0.9888592708         1.146533863    
AX       -0.5763573335       -0.8816468321        -1.269029894    
AX        -1.138532923         1.557237652       -0.3208919984E-01
AX       -0.9208159836        0.9915306984       -0.9783359879    
AX        -1.509556747        0.8212056541        0.7432669423    
AX         1.212732680        -1.526759406        0.4412572641    
AX        -1.184304597       -0.7587231748E-01   -0.8056996199    
AX         1.813425231        0.5298313297       -0.3455937906    
AX       -0.4780342795       -0.8566462429         1.543154700    
AX        0.5046118346        -1.281506237         1.288431120    
AX        0.4933361722       -0.5621982484        -1.270748917    
AX         1.620426616       -0.2840769054        -1.119340192    
AX       -0.1243130290         1.365231314        0.3544311440    
AX        0.6715552050E-01    -1.326404109       -0.4801967668    
AX        0.9085807253E-01    0.7794155057       -0.6108967938    
AX         1.722226209       -0.5211107295        0.7353253750E-01
AX       -0.2966191359        0.1866258178        -1.439953989    
AX        0.3642495226       -0.1568571144         1.287682024    
AX        -1.801121014        0.7213206207       -0.3386605620    
AX        -1.306118686        -1.109773789        0.8304456928    
AX       -0.5151051078       -0.3729934077        0.5798590379    
AX        0.5342373806       -0.6928888486        0.3316687234    
AX        0.2329037227        0.3496312015        0.3547474671    
AX        0.8755662487        0.8992522389E-02   -0.4076324346    
AX       -0.1682894753       -0.2700450953       -0.4430373137    
AX       -0.7663899118        0.5278501088        0.1097453300E-01
    38
Energy=    -170.992492629050    
AX        0.8179414369        0.4980042105        -1.376559022    
AX         1.369283095       -0.6557316637         1.117521444    
AX       -0.2790115815        -1.432693127        0.5537201380    
AX         1.113553038        -1.109432484       -0.5747095362    
AX        -1.555228809       -0.1905041306        0.2471359367    
AX       -0.5837499243E-02     1.249280939        -1.592175555    
AX         1.263441653        0.2944632412        0.6217534060    
AX        -1.287465903       -0.1116843072         1.322925849    
AX       -0.4822855014        0.6059814551         1.111924635    
AX        0.9187521426         1.123921544       -0.6408064580E-02
AX       -0.2394704306         1.816234400       -0.6487885946    
AX       -0.9588775726       -0.9967924663       -0.2211102498    
AX        0.5790349536        0.9888592531         1.146533880    
AX       -0.5763573495       -0.8816468258        -1.269029884    
AX        -1.138532904         1.557237658       -0.3208919126E-01
AX       -0.9208159939        0.9915307074       -0.9783359950    
AX        -1.509556748        0.8212056607        0.7432669451    
AX         1.212732741        -1.526759375        0.4412572825    
AX        -1.184304601       -0.7587230446E-01   -0.8056996064    
AX         1.813425248        0.5298313128       -0.3455937716    
AX       -0.4780342809       -0.8566462820         1.543154692    
AX        0.5046118453        -1.281506248         1.288431097    
AX        0.4933361653       -0.5621982547        -1.270748917    
AX         1.620426622       -0.2840768942        -1.119340181    
AX       -0.1243130101         1.365231307        0.3544311426    
AX        0.6715551420E-01    -1.326404091       -0.4801967823    
AX        0.9085807302E-01    0.7794154982       -0.6108968070    
AX         1.722226166       -0.5211107265        0.7353256469E-01
AX       -0.2966191573        0.1866258018        -1.439954009    
AX        0.3642495029       -0.1568571279         1.287682019    
AX        -1.801121015        0.7213206412       -0.3386605512    
AX        -1.306118696        -1.109773809        0.8304456768    
AX       -0.5151051027       -0.3729933997        0.5798590297    
AX        0.5342373834       -0.6928888569        0.3316687191    
AX        0.2329037230        0.3496311971        0.3547474712    
AX        0.8755662579        0.8992531292E-02   -0.4076324361    
AX       -0.1682894871       -0.2700450978       -0.4430373110    
AX       -0.7663899181        0.5278501129        0.1097453914E-01
    38
Energy=    -170.992492629049    
AX        0.8179414396        0.4980041961        -1.376559026    
AX         1.369283077       -0.6557316193         1.117521462    
AX       -0.2790115797        -1.432693135        0.5537201227    
AX         1.113553026        -1.109432482       -0.5747095235    
AX        -1.555228802       -0.1905041233        0.2471359417    
AX       -0.5837504841E-02     1.249280922        -1.592175558    
AX         1.263441660        0.2944632757        0.6217533987    
AX        -1.287465896       -0.1116843182         1.322925851    
AX       -0.4822855079        0.6059814612         1.111924632    
AX        0.9187521383         1.123921546       -0.6408096205E-02
AX       -0.2394704095         1.816234393       -0.6487885938    
AX       -0.9588775767       -0.9967924611       -0.2211102538    
AX        0.5790349494        0.9888592334         1.146533899    
AX       -0.5763573616       -0.8816468172        -1.269029883    
AX        -1.138532881         1.557237662       -0.3208917806E-01
AX       -0.9208159987        0.9915307154       -0.9783359938    
AX        -1.509556748        0.8212056597        0.7432669489    
AX         1.212732791        -1.526759345        0.4412573044    
AX        -1.184304602       -0.7587229443E-01   -0.8056995981    
AX         1.813425254        0.5298313075       -0.3455937808    
AX       -0.4780342857       -0.8566463124         1.543154684    
AX        0.5046118500        -1.281506252         1.288431084    
AX        0.4933361616       -0.5621982558        -1.270748918    
AX         1.620426627       -0.2840769022        -1.119340167    
AX       -0.1243129895         1.365231303        0.3544311410    
AX        0.6715549816E-01    -1.326404086       -0.4801968021    
AX        0.9085807290E-01    0.7794154919       -0.6108968176    
AX         1.722226143       -0.5211107194        0.7353258047E-01
AX       -0.2966191684        0.1866257937        -1.439954020    
AX        0.3642494802       -0.1568571347         1.287682016    
AX        -1.801121009        0.7213206543       -0.3386605390    
AX        -1.306118704        -1.109773825        0.8304456655    
AX       -0.5151050988       -0.3729933998        0.5798590232    
AX        0.5342373788       -0.6928888654        0.3316687155    
AX        0.2329037329        0.3496311900        0.3547474795    
AX        0.8755662659        0.8992536417E-02   -0.4076324377    
AX       -0.1682894971       -0.2700451084       -0.4430373098    
AX       -0.7663899260        0.5278501140        0.1097454699E-01
    38
Energy=    -170.992492629048    
AX        0.8179414163        0.4980041532        -1.376559051    
AX         1.369283052       -0.6557315481         1.117521518    
AX       -0.2790115656        -1.432693124        0.5537200850    
AX         1.113553029        -1.109432491       -0.5747095350    
AX        -1.555228802       -0.1905041114        0.2471359526    
AX       -0.5837521040E-02     1.249280892        -1.592175584    
AX         1.263441660        0.2944633169        0.6217533990    
AX        -1.287465859       -0.1116843312         1.322925865    
AX       -0.4822855139        0.6059814827         1.111924639    
AX        0.9187521218         1.123921533       -0.6408166129E-02
AX       -0.2394703657         1.816234368       -0.6487886073    
AX       -0.9588775889       -0.9967924610       -0.2211102580    
AX        0.5790349327        0.9888591954         1.146533956    
AX       -0.5763573918       -0.8816468173        -1.269029887    
AX        -1.138532841         1.557237677       -0.3208915679E-01
AX       -0.9208160119        0.9915307269       -0.9783360000    
AX        -1.509556752        0.8212056661        0.7432669741    
AX         1.212732855        -1.526759277        0.4412573163    
AX        -1.184304605       -0.7587227725E-01   -0.8056995884    
AX         1.813425270        0.5298312961       -0.3455937562    
AX       -0.4780342678       -0.8566463774         1.543154631    
AX        0.5046118789        -1.281506278         1.288431052    
AX        0.4933361470       -0.5621982628        -1.270748907    
AX         1.620426666       -0.2840769007        -1.119340111    
AX       -0.1243129553         1.365231299        0.3544311463    
AX        0.6715549892E-01    -1.326404079       -0.4801968414    
AX        0.9085804598E-01    0.7794154455       -0.6108968191    
AX         1.722226088       -0.5211107267        0.7353262782E-01
AX       -0.2966191976        0.1866257730        -1.439954048    
AX        0.3642494549       -0.1568571463         1.287682033    
AX        -1.801120998        0.7213206856       -0.3386605195    
AX        -1.306118704        -1.109773825        0.8304456426    
AX       -0.5151051109       -0.3729934040        0.5798590257    
AX        0.5342373763       -0.6928888630        0.3316687100    
AX        0.2329037198        0.3496312113        0.3547474565    
AX        0.8755662446        0.8992545031E-02   -0.4076324335    
AX       -0.1682894968       -0.2700450973       -0.4430373119    
AX       -0.7663899082        0.5278501324        0.1097455214E-01
    38
Energy=    -170.992492629045    
AX        0.8179413749        0.4980041322        -1.376559072    
AX         1.369283000       -0.6557314432         1.117521590    
AX       -0.2790115494        -1.432693121        0.5537200392    
AX         1.113553023        -1.109432504       -0.5747095338    
AX        -1.555228816       -0.1905041025        0.2471359523    
AX       -0.5837523939E-02     1.249280880        -1.592175613    
AX         1.263441671        0.2944633809        0.6217533805    
AX        -1.287465815       -0.1116843380         1.322925887    
AX       -0.4822855094        0.6059814858         1.111924648    
AX        0.9187521036         1.123921512       -0.6408261885E-02
AX       -0.2394702952         1.816234319       -0.6487886282    
AX       -0.9588776047       -0.9967924639       -0.2211102767    
AX        0.5790348866        0.9888591477         1.146534038    
AX       -0.5763574312       -0.8816468182        -1.269029916    
AX        -1.138532790         1.557237698       -0.3208912365E-01
AX       -0.9208160129        0.9915307368       -0.9783359929    
AX        -1.509556750        0.8212056586        0.7432670103    
AX         1.212732934        -1.526759174        0.4412573335    
AX        -1.184304605       -0.7587225995E-01   -0.8056995878    
AX         1.813425262        0.5298313005       -0.3455937718    
AX       -0.4780342446       -0.8566464631         1.543154558    
AX        0.5046119125        -1.281506309         1.288431024    
AX        0.4933361247       -0.5621982763        -1.270748889    
AX         1.620426709       -0.2840769359        -1.119340029    
AX       -0.1243129101         1.365231320        0.3544311648    
AX        0.6715548713E-01    -1.326404101       -0.4801968944    
AX        0.9085800324E-01    0.7794153980       -0.6108968496    
AX         1.722226064       -0.5211107366        0.7353267088E-01
AX       -0.2966192165        0.1866257639        -1.439954062    
AX        0.3642494101       -0.1568571408         1.287682052    
AX        -1.801120970        0.7213207149       -0.3386604954    
AX        -1.306118703        -1.109773802        0.8304456197    
AX       -0.5151051178       -0.3729933967        0.5798590122    
AX        0.5342373601       -0.6928888435        0.3316687095    
AX        0.2329037258        0.3496312082        0.3547474834    
AX        0.8755662327        0.8992542306E-02   -0.4076324372    
AX       -0.1682895118       -0.2700451134       -0.4430373125    
AX       -0.7663899081        0.5278501438        0.1097457565E-01
    38
Energy=    -170.992492629043    
AX        0.8179413601        0.4980041287        -1.376559078    
AX         1.369282993       -0.6557314287         1.117521607    
AX       -0.2790115469        -1.432693117        0.5537200308    
AX         1.113553028        -1.109432507       -0.5747095397    
AX        -1.555228823       -0.1905041019        0.2471359501    
AX       -0.5837520499E-02     1.249280881        -1.592175619    
AX         1.263441674        0.2944633871        0.6217533779    
AX        -1.287465805       -0.1116843361         1.322925890    
AX       -0.4822855045        0.6059814860         1.111924653    
AX        0.9187521001         1.123921505       -0.6408276976E-02
AX       -0.2394702876         1.816234307       -0.6487886339    
AX       -0.9588776085       -0.9967924650       -0.2211102785    
AX        0.5790348794        0.9888591414         1.146534052    
AX       -0.5763574394       -0.8816468218        -1.269029922    
AX        -1.138532786         1.557237702       -0.3208911912E-01
AX       -0.9208160117        0.9915307361       -0.9783359928    
AX        -1.509556750        0.8212056586        0.7432670192    
AX         1.212732941        -1.526759156        0.4412573305    
AX        -1.184304605       -0.7587225665E-01   -0.8056995908    
AX         1.813425262        0.5298313022       -0.3455937718    
AX       -0.4780342362       -0.8566464780         1.543154536    
AX        0.5046119215        -1.281506318         1.288431018    
AX        0.4933361184       -0.5621982801        -1.270748882    
AX         1.620426718       -0.2840769390        -1.119340014    
AX       -0.1243129064         1.365231326        0.3544311706    
AX        0.6715549151E-01    -1.326404107       -0.4801969020    
AX        0.9085798712E-01    0.7794153838       -0.6108968547    
AX         1.722226063       -0.5211107449        0.7353268150E-01
AX       -0.2966192185        0.1866257633        -1.439954062    
AX        0.3642494078       -0.1568571374         1.287682059    
AX        -1.801120965        0.7213207192       -0.3386604958    
AX        -1.306118702        -1.109773790        0.8304456153    
AX       -0.5151051226       -0.3729933982        0.5798590148    
AX        0.5342373580       -0.6928888344        0.3316687103    
AX        0.2329037257        0.3496312089        0.3547474886    
AX        0.8755662238        0.8992539434E-02   -0.4076324351    
AX       -0.1682895087       -0.2700451090       -0.4430373136    
AX       -0.7663899032        0.5278501499        0.1097457759E-01
    38
Energy=    -170.992492629037    
AX        0.8179413105        0.4980041234        -1.376559080    
AX         1.369283033       -0.6557314849         1.117521628    
AX       -0.2790115541        -1.432693107        0.5537200401    
AX         1.113553070        -1.109432507       -0.5747095861    
AX        -1.555228851       -0.1905040962        0.2471359265    
AX       -0.5837481313E-02     1.249280898        -1.592175597    
AX         1.263441680        0.2944633320        0.6217533841    
AX        -1.287465804       -0.1116843077         1.322925871    
AX       -0.4822854687        0.6059814836         1.111924682    
AX        0.9187521041         1.123921490       -0.6408235694E-02
AX       -0.2394703589         1.816234280       -0.6487886397    
AX       -0.9588776026       -0.9967924575       -0.2211102613    
AX        0.5790349191        0.9888591646         1.146534020    
AX       -0.5763574379       -0.8816468428        -1.269029900    
AX        -1.138532847         1.557237700       -0.3208913735E-01
AX       -0.9208160054        0.9915307168       -0.9783360152    
AX        -1.509556756        0.8212056725        0.7432670157    
AX         1.212732873        -1.526759187        0.4412572814    
AX        -1.184304588       -0.7587225577E-01   -0.8056996108    
AX         1.813425268        0.5298312988       -0.3455937575    
AX       -0.4780342124       -0.8566464599         1.543154488    
AX        0.5046119354        -1.281506330         1.288431018    
AX        0.4933361070       -0.5621982826        -1.270748852    
AX         1.620426702       -0.2840768909        -1.119340038    
AX       -0.1243129582         1.365231339        0.3544311846    
AX        0.6715553828E-01    -1.326404098       -0.4801968728    
AX        0.9085794257E-01    0.7794153812       -0.6108968760    
AX         1.722226083       -0.5211107961        0.7353269986E-01
AX       -0.2966192028        0.1866257727        -1.439954058    
AX        0.3642494721       -0.1568571143         1.287682065    
AX        -1.801120972        0.7213207022       -0.3386605458    
AX        -1.306118715        -1.109773749        0.8304456154    
AX       -0.5151051193       -0.3729933812        0.5798590245    
AX        0.5342373597       -0.6928887980        0.3316687236    
AX        0.2329037040        0.3496311774        0.3547475556    
AX        0.8755662175        0.8992523530E-02   -0.4076324232    
AX       -0.1682894849       -0.2700450765       -0.4430373083    
AX       -0.7663898999        0.5278501667        0.1097457012E-01
    38
Energy=    -170.992492629034    
AX        0.8179413652        0.4980041221        -1.376559070    
AX         1.369282945       -0.6557313510         1.117521632    
AX       -0.2790115406        -1.432693106        0.5537200107    
AX         1.113553024        -1.109432528       -0.5747095145    
AX        -1.555228819       -0.1905040891        0.2471359544    
AX       -0.5837532399E-02     1.249280884        -1.592175647    
AX         1.263441654        0.2944634457        0.6217533578    
AX        -1.287465781       -0.1116843509         1.322925920    
AX       -0.4822855272        0.6059814804         1.111924646    
AX        0.9187520781         1.123921495       -0.6408357102E-02
AX       -0.2394702058         1.816234300       -0.6487886292    
AX       -0.9588776136       -0.9967924764       -0.2211103216    
AX        0.5790348343        0.9888591125         1.146534118    
AX       -0.5763574557       -0.8816468174        -1.269029965    
AX        -1.138532738         1.557237715       -0.3208910128E-01
AX       -0.9208160136        0.9915307547       -0.9783359840    
AX        -1.509556732        0.8212056423        0.7432670375    
AX         1.212733014        -1.526759067        0.4412573646    
AX        -1.184304611       -0.7587226002E-01   -0.8056995758    
AX         1.813425227        0.5298313100       -0.3455938017    
AX       -0.4780342282       -0.8566465428         1.543154539    
AX        0.5046119387        -1.281506341         1.288430997    
AX        0.4933361064       -0.5621983054        -1.270748899    
AX         1.620426749       -0.2840769973        -1.119339965    
AX       -0.1243128577         1.365231340        0.3544311963    
AX        0.6715546483E-01    -1.326404131       -0.4801969282    
AX        0.9085802648E-01    0.7794153740       -0.6108968497    
AX         1.722226059       -0.5211107108        0.7353267306E-01
AX       -0.2966192363        0.1866257551        -1.439954074    
AX        0.3642493454       -0.1568571512         1.287682087    
AX        -1.801120946        0.7213207479       -0.3386604535    
AX        -1.306118691        -1.109773781        0.8304456050    
AX       -0.5151051454       -0.3729933713        0.5798589723    
AX        0.5342373530       -0.6928888499        0.3316687189    
AX        0.2329037701        0.3496312596        0.3547474542    
AX        0.8755662298        0.8992542608E-02   -0.4076324361    
AX       -0.1682895640       -0.2700451772       -0.4430373239    
AX       -0.7663899450        0.5278501226        0.1097461408E-01
    38
Energy=    -170.992492629018    
AX        0.8179415083        0.4980041550        -1.376559137    
AX         1.369282822       -0.6557311917         1.117521577    
AX       -0.2790114975        -1.432693115        0.5537199645    
AX         1.113552874        -1.109432536       -0.5747093991    
AX        -1.555228767       -0.1905041443        0.2471360713    
AX       -0.5837720546E-02     1.249280790        -1.592175773    
AX         1.263441599        0.2944636035        0.6217533896    
AX        -1.287465763       -0.1116844584         1.322926011    
AX       -0.4822856104        0.6059814672         1.111924492    
AX        0.9187521379         1.123921596       -0.6408473160E-02
AX       -0.2394699138         1.816234371       -0.6487886545    
AX       -0.9588776711       -0.9967925275       -0.2211103514    
AX        0.5790346330        0.9888590204         1.146534252    
AX       -0.5763574921       -0.8816467703        -1.269030070    
AX        -1.138532500         1.557237736       -0.3208903860E-01
AX       -0.9208159924        0.9915308105       -0.9783358729    
AX        -1.509556736        0.8212056159        0.7432670951    
AX         1.212733205        -1.526759011        0.4412575164    
AX        -1.184304705       -0.7587224881E-01   -0.8056995102    
AX         1.813425259        0.5298313481       -0.3455937027    
AX       -0.4780342869       -0.8566465844         1.543154671    
AX        0.5046118962        -1.281506310         1.288431003    