    38
Energy=    -169.403102763540    
AX        0.7265505064        0.2736707631        -1.680103121    
AX         1.193021210       -0.8385126943         1.068732508    
AX       -0.3586572088E-01    -1.740321880        0.3988124230    
AX         1.240504776        -1.032162977       -0.8433440680    
AX        -1.403316796       -0.2034635485        0.1675016097    
AX        0.3134592481E-01     1.154796270        -1.566473650    
AX         1.397804245        0.2636569089        0.9528116441    
AX        -1.410734559       -0.1240435883         1.249929728    
AX       -0.4350498956        0.6777022878         1.541811873    
AX        0.7484452724         1.455642592        0.1793290823    
AX       -0.1120911789         1.543236879       -0.5277209715    
AX       -0.8944611577        -1.464294090       -0.2711925813    
AX        0.6124118579         1.000367096         1.205863634    
AX       -0.6467452531       -0.9242577336        -1.243212522    
AX        -1.085984137         1.581612632       -0.7484966048E-01
AX       -0.9771283497         1.044638073        -1.112197670    
AX        -1.244936474        0.7912421072        0.6768104300    
AX         1.023855272        -1.469399707        0.1561874657    
AX        -1.270023957       -0.5762608378E-01   -0.9194647443    
AX         1.504386042        0.6945398625       -0.4993120495E-01
AX       -0.5013413277       -0.4433850972         1.714186651    
AX        0.1843676973        -1.203954141         1.340204021    
AX        0.3976714760       -0.7636531267        -1.538114558    
AX         1.500290720        0.5125638712E-01   -0.9372057653    
AX       -0.2415468604         1.196735706        0.5651359760    
AX        0.1868643827        -1.294630043       -0.5739592375    
AX        0.6278905092        0.7899745726       -0.7177098062    
AX         1.341318742       -0.3946994864        0.7823798950E-01
AX       -0.2521638645        0.1511651663        -1.206616455    
AX        0.4270936157       -0.7802633185E-01     1.308288888    
AX        -1.714743540        0.7326843559       -0.3231362452    
AX       -0.7511277923       -0.9650136591        0.7243237596    
AX       -0.4509303718        0.5217264166E-01    0.6833482813    
AX        0.3166592698       -0.6871066155        0.3990827229    
AX        0.4891717952        0.3859402307        0.2861321514    
AX        0.5178325589       -0.2574487551       -0.5895200611    
AX       -0.4745801353       -0.4772332824       -0.2772360560    
AX       -0.5647145010        0.5781983080       -0.2447424606    
    38
Energy=    -169.403102763540    
AX        0.7265505071        0.2736707601        -1.680103118    
AX         1.193021207       -0.8385127015         1.068732503    
AX       -0.3586572770E-01    -1.740321878        0.3988124221    
AX         1.240504782        -1.032162974       -0.8433440728    
AX        -1.403316788       -0.2034635487        0.1675016100    
AX        0.3134593037E-01     1.154796261        -1.566473643    
AX         1.397804245        0.2636569015        0.9528116496    
AX        -1.410734552       -0.1240435839         1.249929730    
AX       -0.4350498979        0.6777022894         1.541811877    
AX        0.7484452745         1.455642602        0.1793290802    
AX       -0.1120911832         1.543236867       -0.5277209708    
AX       -0.8944611658        -1.464294082       -0.2711925773    
AX        0.6124118528         1.000367089         1.205863629    
AX       -0.6467452535       -0.9242577334        -1.243212518    
AX        -1.085984146         1.581612633       -0.7484966740E-01
AX       -0.9771283534         1.044638077        -1.112197671    
AX        -1.244936478        0.7912421121        0.6768104294    
AX         1.023855272        -1.469399709        0.1561874600    
AX        -1.270023956       -0.5762608505E-01   -0.9194647403    
AX         1.504386041        0.6945398615       -0.4993119616E-01
AX       -0.5013413248       -0.4433850974         1.714186657    
AX        0.1843676940        -1.203954141         1.340204015    
AX        0.3976714747       -0.7636531297        -1.538114558    
AX         1.500290731        0.5125639482E-01   -0.9372057688    
AX       -0.2415468621         1.196735709        0.5651359708    
AX        0.1868643857        -1.294630047       -0.5739592384    
AX        0.6278905228        0.7899745744       -0.7177098053    
AX         1.341318746       -0.3946994860        0.7823798862E-01
AX       -0.2521638633        0.1511651657        -1.206616443    
AX        0.4270936147       -0.7802633737E-01     1.308288881    
AX        -1.714743550        0.7326843522       -0.3231362454    
AX       -0.7511277897       -0.9650136535        0.7243237631    
AX       -0.4509303706        0.5217264949E-01    0.6833482809    
AX        0.3166592758       -0.6871066168        0.3990827211    
AX        0.4891717911        0.3859402341        0.2861321472    
AX        0.5178325691       -0.2574487551       -0.5895200682    
AX       -0.4745801324       -0.4772332740       -0.2772360554    
AX       -0.5647145215        0.5781983010       -0.2447424554    
    38
Energy=    -169.403102763536    
AX        0.7265505146        0.2736707887        -1.680103130    
AX         1.193021203       -0.8385126883         1.068732515    
AX       -0.3586573041E-01    -1.740321864        0.3988124147    
AX         1.240504767        -1.032162985       -0.8433440627    
AX        -1.403316775       -0.2034635711        0.1675016050    
AX        0.3134590745E-01     1.154796264        -1.566473656    
AX         1.397804248        0.2636569156        0.9528116490    
AX        -1.410734559       -0.1240435886         1.249929732    
AX       -0.4350499286        0.6777022956         1.541811862    
AX        0.7484452833         1.455642591        0.1793290697    
AX       -0.1120911773         1.543236872       -0.5277209801    
AX       -0.8944611760        -1.464294096       -0.2711925884    
AX        0.6124118462         1.000367095         1.205863636    
AX       -0.6467452548       -0.9242577341        -1.243212532    
AX        -1.085984137         1.581612630       -0.7484965787E-01
AX       -0.9771283577         1.044638084        -1.112197659    
AX        -1.244936455        0.7912420899        0.6768104285    
AX         1.023855269        -1.469399705        0.1561874790    
AX        -1.270023945       -0.5762608146E-01   -0.9194647344    
AX         1.504386047        0.6945398506       -0.4993121570E-01
AX       -0.5013413332       -0.4433850920         1.714186657    
AX        0.1843676878        -1.203954134         1.340204009    
AX        0.3976714777       -0.7636530988        -1.538114557    
AX         1.500290721        0.5125636668E-01   -0.9372057761    
AX       -0.2415468464         1.196735721        0.5651359743    
AX        0.1868643941        -1.294630051       -0.5739592453    
AX        0.6278905186        0.7899745722       -0.7177098118    
AX         1.341318746       -0.3946994903        0.7823799257E-01
AX       -0.2521638629        0.1511651657        -1.206616447    
AX        0.4270936315       -0.7802632765E-01     1.308288895    
AX        -1.714743544        0.7326843466       -0.3231362298    
AX       -0.7511278066       -0.9650136658        0.7243237626    
AX       -0.4509303799        0.5217263673E-01    0.6833482620    
AX        0.3166592961       -0.6871066291        0.3990827405    
AX        0.4891718041        0.3859402481        0.2861321534    
AX        0.5178325867       -0.2574487460       -0.5895200647    
AX       -0.4745801761       -0.4772332392       -0.2772360481    
AX       -0.5647145028        0.5781982545       -0.2447424416    
    38
Energy=    -169.403102763538    
AX        0.7265504972        0.2736706911        -1.680103083    
AX         1.193021211       -0.8385127374         1.068732472    
AX       -0.3586572888E-01    -1.740321895        0.3988124281    
AX         1.240504814        -1.032162944       -0.8433441024    
AX        -1.403316776       -0.2034635108        0.1675016140    
AX        0.3134597776E-01     1.154796241        -1.566473609    
AX         1.397804233        0.2636568667        0.9528116597    
AX        -1.410734527       -0.1240435536         1.249929733    
AX       -0.4350498556        0.6777022830         1.541811910    
AX        0.7484452633         1.455642628        0.1793291054    
AX       -0.1120911966         1.543236831       -0.5277209468    
AX       -0.8944611635        -1.464294047       -0.2711925536    
AX        0.6124118520         1.000367067         1.205863606    
AX       -0.6467452572       -0.9242577284        -1.243212495    
AX        -1.085984187         1.581612644       -0.7484969876E-01
AX       -0.9771283628         1.044638063        -1.112197708    
AX        -1.244936525        0.7912421578        0.6768104278    
AX         1.023855271        -1.469399712        0.1561874095    
AX        -1.270023971       -0.5762610513E-01   -0.9194647333    
AX         1.504386039        0.6945398814       -0.4993114624E-01
AX       -0.5013413141       -0.4433851066         1.714186671    
AX        0.1843677024        -1.203954152         1.340204014    
AX        0.3976714608       -0.7636531923        -1.538114563    
AX         1.500290769        0.5125645166E-01   -0.9372057542    
AX       -0.2415468868         1.196735689        0.5651359641    
AX        0.1868643842        -1.294630052       -0.5739592379    
AX        0.6278905734        0.7899745868       -0.7177097956    
AX         1.341318750       -0.3946994788        0.7823797848E-01
AX       -0.2521638717        0.1511651670        -1.206616415    
AX        0.4270935976       -0.7802636461E-01     1.308288850    
AX        -1.714743583        0.7326843553       -0.3231362745    
AX       -0.7511277566       -0.9650136235        0.7243237692    
AX       -0.4509303717        0.5217269222E-01    0.6833482896    
AX        0.3166592742       -0.6871066183        0.3990827072    
AX        0.4891717716        0.3859402251        0.2861321234    
AX        0.5178325830       -0.2574487588       -0.5895200999    
AX       -0.4745800994       -0.4772332622       -0.2772360559    
AX       -0.5647145926        0.5781983214       -0.2447424594    
    38
Energy=    -169.403102763536    
AX        0.7265504807        0.2736705784        -1.680103035    
AX         1.193021232       -0.8385127646         1.068732441    
AX       -0.3586569189E-01    -1.740321921        0.3988124395    
AX         1.240504831        -1.032162898       -0.8433441322    
AX        -1.403316772       -0.2034634502        0.1675016120    
AX        0.3134602516E-01     1.154796246        -1.566473584    
AX         1.397804212        0.2636568445        0.9528116554    
AX        -1.410734513       -0.1240435150         1.249929731    
AX       -0.4350497844        0.6777022660         1.541811948    
AX        0.7484452295         1.455642613        0.1793291589    
AX       -0.1120911932         1.543236821       -0.5277209086    
AX       -0.8944611246        -1.464294031       -0.2711925306    
AX        0.6124118694         1.000367058         1.205863591    
AX       -0.6467452737       -0.9242577253        -1.243212483    
AX        -1.085984212         1.581612670       -0.7484971711E-01
AX       -0.9771283647         1.044638023        -1.112197773    
AX        -1.244936580        0.7912422025        0.6768104246    
AX         1.023855268        -1.469399700        0.1561873487    
AX        -1.270024001       -0.5762613172E-01   -0.9194647363    
AX         1.504386047        0.6945399262       -0.4993109841E-01
AX       -0.5013413166       -0.4433851229         1.714186667    
AX        0.1843677344        -1.203954168         1.340204039    
AX        0.3976714340       -0.7636532886        -1.538114571    
AX         1.500290785        0.5125650825E-01   -0.9372056988    
AX       -0.2415469156         1.196735644        0.5651359878    
AX        0.1868643776        -1.294630048       -0.5739592365    
AX        0.6278906105        0.7899746023       -0.7177097899    
AX         1.341318734       -0.3946994664        0.7823796284E-01
AX       -0.2521639030        0.1511651714        -1.206616423    
AX        0.4270935943       -0.7802638387E-01     1.308288839    
AX        -1.714743593        0.7326843842       -0.3231363248    
AX       -0.7511277155       -0.9650136016        0.7243237628    
AX       -0.4509303958        0.5217272736E-01    0.6833482789    
AX        0.3166592628       -0.6871066304        0.3990827068    
AX        0.4891717685        0.3859402044        0.2861320992    
AX        0.5178325837       -0.2574487551       -0.5895201280    
AX       -0.4745801046       -0.4772332276       -0.2772360468    
AX       -0.5647146250        0.5781983373       -0.2447424773    
    38
Energy=    -169.403102763534    
AX        0.7265504754        0.2736705470        -1.680103027    
AX         1.193021239       -0.8385127682         1.068732436    
AX       -0.3586567655E-01    -1.740321932        0.3988124462    
AX         1.240504832        -1.032162884       -0.8433441351    
AX        -1.403316777       -0.2034634315        0.1675016084    
AX        0.3134603560E-01     1.154796254        -1.566473581    
AX         1.397804207        0.2636568441        0.9528116514    
AX        -1.410734511       -0.1240435111         1.249929727    
AX       -0.4350497614        0.6777022588         1.541811956    
AX        0.7484452154         1.455642604        0.1793291732    
AX       -0.1120911894         1.543236828       -0.5277208975    
AX       -0.8944611069        -1.464294036       -0.2711925241    
AX        0.6124118775         1.000367061         1.205863588    
AX       -0.6467452817       -0.9242577276        -1.243212481    
AX        -1.085984212         1.581612680       -0.7484971249E-01
AX       -0.9771283590         1.044638016        -1.112197787    
AX        -1.244936593        0.7912422105        0.6768104238    
AX         1.023855268        -1.469399697        0.1561873365    
AX        -1.270024008       -0.5762613201E-01   -0.9194647420    
AX         1.504386047        0.6945399427       -0.4993108919E-01
AX       -0.5013413165       -0.4433851282         1.714186661    
AX        0.1843677465        -1.203954174         1.340204051    
AX        0.3976714250       -0.7636533163        -1.538114571    
AX         1.500290778        0.5125652268E-01   -0.9372056791    
AX       -0.2415469243         1.196735630        0.5651359974    
AX        0.1868643735        -1.294630047       -0.5739592327    
AX        0.6278906095        0.7899746044       -0.7177097902    
AX         1.341318725       -0.3946994611        0.7823795925E-01
AX       -0.2521639110        0.1511651719        -1.206616438    
AX        0.4270935939       -0.7802638575E-01     1.308288839    
AX        -1.714743586        0.7326843999       -0.3231363400    
AX       -0.7511277052       -0.9650135993        0.7243237589    
AX       -0.4509304037        0.5217272827E-01    0.6833482742    
AX        0.3166592532       -0.6871066332        0.3990827066    
AX        0.4891717695        0.3859401963        0.2861320932    
AX        0.5178325766       -0.2574487540       -0.5895201277    
AX       -0.4745801088       -0.4772332293       -0.2772360440    
AX       -0.5647146166        0.5781983478       -0.2447424882    
    38
Energy=    -169.403102763502    
AX        0.7265504728        0.2736705701        -1.680103145    
AX         1.193021256       -0.8385127442         1.068732484    
AX       -0.3586566831E-01    -1.740322008        0.3988124949    
AX         1.240504813        -1.032162861       -0.8433440513    
AX        -1.403316784       -0.2034634246        0.1675015409    
AX        0.3134602977E-01     1.154796298        -1.566473588    
AX         1.397804214        0.2636569127        0.9528116399    
AX        -1.410734502       -0.1240436180         1.249929667    
AX       -0.4350497565        0.6777022560         1.541811934    
AX        0.7484451904         1.455642638        0.1793291412    
AX       -0.1120911829         1.543236899       -0.5277208814    
AX       -0.8944610701        -1.464294162       -0.2711925079    
AX        0.6124118841         1.000367121         1.205863575    
AX       -0.6467453358       -0.9242577744        -1.243212496    
AX        -1.085984164         1.581612730       -0.7484958346E-01
AX       -0.9771282938         1.044638121        -1.112197712    
AX        -1.244936584        0.7912421904        0.6768104227    
AX         1.023855272        -1.469399729        0.1561873898    
AX        -1.270023945       -0.5762601957E-01   -0.9194647777    
AX         1.504385997        0.6945399746       -0.4993112892E-01
AX       -0.5013412714       -0.4433851378         1.714186644    
AX        0.1843677633        -1.203954206         1.340204111    
AX        0.3976713977       -0.7636533158        -1.538114534    
AX         1.500290644        0.5125653258E-01   -0.9372056760    
AX       -0.2415469384         1.196735626        0.5651359803    
AX        0.1868643599        -1.294630128       -0.5739591930    
AX        0.6278905262        0.7899745521       -0.7177098158    
AX         1.341318657       -0.3946994235        0.7823794441E-01
AX       -0.2521638856        0.1511651739        -1.206616561    
AX        0.4270935726       -0.7802636337E-01     1.308288814    
AX        -1.714743499        0.7326844852       -0.3231363339    
AX       -0.7511277127       -0.9650136073        0.7243237513    
AX       -0.4509303859        0.5217256383E-01    0.6833481609    
AX        0.3166591591       -0.6871065807        0.3990826813    
AX        0.4891717474        0.3859401512        0.2861320629    
AX        0.5178326214       -0.2574487174       -0.5895199766    
AX       -0.4745801727       -0.4772333114       -0.2772359481    
AX       -0.5647144242        0.5781983363       -0.2447425276    
    38
Energy=    -169.403102763525    
AX        0.7265504704        0.2736703991        -1.680102826    
AX         1.193021256       -0.8385127979         1.068732371    
AX       -0.3586562647E-01    -1.740321855        0.3988123785    
AX         1.240504849        -1.032162856       -0.8433442689    
AX        -1.403316753       -0.2034633993        0.1675016941    
AX        0.3134605984E-01     1.154796202        -1.566473555    
AX         1.397804182        0.2636567752        0.9528116617    
AX        -1.410734513       -0.1240433328         1.249929819    
AX       -0.4350497764        0.6777022756         1.541812028    
AX        0.7484452364         1.455642516        0.1793292740    
AX       -0.1120911590         1.543236673       -0.5277208708    
AX       -0.8944611083        -1.464293901       -0.2711925278    
AX        0.6124118546         1.000366993         1.205863642    
AX       -0.6467452892       -0.9242577019        -1.243212485    
AX        -1.085984257         1.581612638       -0.7484987838E-01
AX       -0.9771284387         1.044637859        -1.112197938    
AX        -1.244936646        0.7912422743        0.6768104082    
AX         1.023855296        -1.469399652        0.1561872203    
AX        -1.270024145       -0.5762625879E-01   -0.9194647202    
AX         1.504386178        0.6945399571       -0.4993098959E-01
AX       -0.5013413575       -0.4433851462         1.714186663    
AX        0.1843677652        -1.203954150         1.340204014    
AX        0.3976713860       -0.7636534247        -1.538114653    
AX         1.500290949        0.5125654425E-01   -0.9372055867    
AX       -0.2415469393         1.196735606        0.5651360272    
AX        0.1868643795        -1.294629942       -0.5739592667    
AX        0.6278908133        0.7899746682       -0.7177097638    
AX         1.341318755       -0.3946994738        0.7823790708E-01
AX       -0.2521640162        0.1511651898        -1.206616359    
AX        0.4270936157       -0.7802642386E-01     1.308288897    
AX        -1.714743696        0.7326843469       -0.3231363803    
AX       -0.7511276527       -0.9650135349        0.7243237455    
AX       -0.4509304216        0.5217281780E-01    0.6833483294    
AX        0.3166593002       -0.6871066113        0.3990826672    
AX        0.4891718166        0.3859401992        0.2861320667    
AX        0.5178326211       -0.2574487259       -0.5895202443    
AX       -0.4745800644       -0.4772331323       -0.2772360647    
AX       -0.5647149237        0.5781983835       -0.2447424355    
    38
Energy=    -169.403102763509    
AX        0.7265504835        0.2736703526        -1.680102648    
AX         1.193021251       -0.8385128246         1.068732322    
AX       -0.3586563851E-01    -1.740321748        0.3988122805    
AX         1.240504876        -1.032162872       -0.8433443969    
AX        -1.403316700       -0.2034634314        0.1675017912    
AX        0.3134605534E-01     1.154796113        -1.566473528    
AX         1.397804174        0.2636567025        0.9528116856    
AX        -1.410734517       -0.1240431648         1.249929935    
AX       -0.4350498747        0.6777023351         1.541812092    
AX        0.7484453149         1.455642473        0.1793293293    
AX       -0.1120911395         1.543236474       -0.5277208755    
AX       -0.8944611790        -1.464293735       -0.2711925476    
AX        0.6124117965         1.000366918         1.205863708    
AX       -0.6467452731       -0.9242576760        -1.243212498    
AX        -1.085984317         1.581612554       -0.7485006851E-01
AX       -0.9771285451         1.044637732        -1.112198040    
AX        -1.244936668        0.7912423364        0.6768103942    
AX         1.023855332        -1.469399632        0.1561871360    
AX        -1.270024263       -0.5762638206E-01   -0.9194646790    
AX         1.504386318        0.6945399129       -0.4993090828E-01
AX       -0.5013413771       -0.4433851475         1.714186689    
AX        0.1843677385        -1.203954107         1.340203934    
AX        0.3976713729       -0.7636534499        -1.538114748    
AX         1.500291147        0.5125652750E-01   -0.9372055595    
AX       -0.2415469374         1.196735633        0.5651360040    
AX        0.1868643969        -1.294629855       -0.5739593120    
AX        0.6278910421        0.7899747168       -0.7177097337    
AX         1.341318815       -0.3946995023        0.7823784378E-01
AX       -0.2521640945        0.1511652162        -1.206616232    
AX        0.4270936104       -0.7802646843E-01     1.308288949    
AX        -1.714743844        0.7326842365       -0.3231363643    
AX       -0.7511276255       -0.9650134501        0.7243237448    
AX       -0.4509303809        0.5217286016E-01    0.6833483777    
AX        0.3166593531       -0.6871065312        0.3990826024    
AX        0.4891718428        0.3859402011        0.2861320397    
AX        0.5178327429       -0.2574486748       -0.5895203274    
AX       -0.4745799990       -0.4772330428       -0.2772360573    
AX       -0.5647152882        0.5781984012       -0.2447423350    
    38
Energy=    -169.403102763496    
AX        0.7265505014        0.2736703978        -1.680102575    
AX         1.193021228       -0.8385128410         1.068732301    
AX       -0.3586569738E-01    -1.740321672        0.3988122115    
AX         1.240504902        -1.032162911       -0.8433444608    
AX        -1.403316651       -0.2034634860        0.1675018507    
AX        0.3134604812E-01     1.154796032        -1.566473505    
AX         1.397804173        0.2636566555        0.9528117118    
AX        -1.410734511       -0.1240430843         1.249930004    
AX       -0.4350499800        0.6777023869         1.541812111    
AX        0.7484454016         1.455642496        0.1793293279    
AX       -0.1120911490         1.543236339       -0.5277208967    
AX       -0.8944612706        -1.464293619       -0.2711925676    
AX        0.6124117398         1.000366863         1.205863738    
AX       -0.6467452384       -0.9242576502        -1.243212498    
AX        -1.085984373         1.581612485       -0.7485019256E-01
AX       -0.9771286255         1.044637686        -1.112198058    
AX        -1.244936661        0.7912423699        0.6768103925    
AX         1.023855346        -1.469399634        0.1561871089    
AX        -1.270024302       -0.5762645499E-01   -0.9194646336    
AX         1.504386386        0.6945398434       -0.4993087786E-01
AX       -0.5013413795       -0.4433851342         1.714186729    
AX        0.1843676913        -1.203954071         1.340203854    
AX        0.3976713892       -0.7636533987        -1.538114794    
AX         1.500291280        0.5125650060E-01   -0.9372056104    
AX       -0.2415469199         1.196735674        0.5651359506    
AX        0.1868644157        -1.294629826       -0.5739593522    
AX        0.6278911887        0.7899747399       -0.7177097156    
AX         1.341318882       -0.3946995313        0.7823782182E-01
AX       -0.2521641059        0.1511652331        -1.206616098    
AX        0.4270935932       -0.7802649674E-01     1.308288957    
AX        -1.714743960        0.7326841299       -0.3231363171    
AX       -0.7511276298       -0.9650134037        0.7243237606    
AX       -0.4509303310        0.5217289951E-01    0.6833484151    
AX        0.3166594058       -0.6871064807        0.3990825664    
AX        0.4891718371        0.3859402196        0.2861320340    
AX        0.5178328309       -0.2574486559       -0.5895203809    
AX       -0.4745799330       -0.4772329825       -0.2772360600    
AX       -0.5647155232        0.5781983808       -0.2447422522    
    38
Energy=    -169.403102763485    
AX        0.7265505173        0.2736704576        -1.680102564    
AX         1.193021209       -0.8385128517         1.068732289    
AX       -0.3586575944E-01    -1.740321637        0.3988121678    
AX         1.240504930        -1.032162944       -0.8433444804    
AX        -1.403316615       -0.2034635278        0.1675018740    
AX        0.3134604280E-01     1.154795985        -1.566473487    
AX         1.397804164        0.2636566263        0.9528117226    
AX        -1.410734498       -0.1240430635         1.249930043    
AX       -0.4350500528        0.6777024320         1.541812103    
AX        0.7484454679         1.455642537        0.1793293139    
AX       -0.1120911631         1.543236262       -0.5277209083    
AX       -0.8944613487        -1.464293551       -0.2711925743    
AX        0.6124116979         1.000366842         1.205863741    
AX       -0.6467452084       -0.9242576421        -1.243212492    
AX        -1.085984416         1.581612438       -0.7485026120E-01
AX       -0.9771286777         1.044637686        -1.112198043    
AX        -1.244936651        0.7912423946        0.6768104037    
AX         1.023855345        -1.469399653        0.1561871096    
AX        -1.270024297       -0.5762648241E-01   -0.9194646056    
AX         1.504386412        0.6945397877       -0.4993086624E-01
AX       -0.5013413630       -0.4433851179         1.714186768    
AX        0.1843676535        -1.203954050         1.340203792    
AX        0.3976714130       -0.7636533410        -1.538114804    
AX         1.500291345        0.5125649030E-01   -0.9372056657    
AX       -0.2415469097         1.196735710        0.5651358938    
AX        0.1868644301        -1.294629833       -0.5739593801    
AX        0.6278912676        0.7899747389       -0.7177097133    
AX         1.341318944       -0.3946995605        0.7823781305E-01
AX       -0.2521640831        0.1511652449        -1.206616001    
AX        0.4270935626       -0.7802651160E-01     1.308288943    
AX        -1.714744036        0.7326840551       -0.3231362669    
AX       -0.7511276410       -0.9650133841        0.7243237757    
AX       -0.4509302720        0.5217292288E-01    0.6833484352    
AX        0.3166594404       -0.6871064440        0.3990825568    
AX        0.4891718058        0.3859402247        0.2861320387    
AX        0.5178328964       -0.2574486458       -0.5895204033    
AX       -0.4745799006       -0.4772329515       -0.2772360655    
AX       -0.5647156507        0.5781983557       -0.2447422015    
    38
Energy=    -169.403102763448    
AX        0.7265505420        0.2736703750        -1.680102532    
AX         1.193021224       -0.8385128512         1.068732278    
AX       -0.3586577697E-01    -1.740321601        0.3988121158    
AX         1.240504921        -1.032162899       -0.8433445225    
AX        -1.403316570       -0.2034635406        0.1675018614    
AX        0.3134604347E-01     1.154795901        -1.566473426    
AX         1.397804126        0.2636566727        0.9528117396    
AX        -1.410734439       -0.1240429744         1.249930093    
AX       -0.4350502800        0.6777024329         1.541812014    
AX        0.7484455706         1.455642563        0.1793293680    
AX       -0.1120911545         1.543236009       -0.5277208204    
AX       -0.8944613930        -1.464293525       -0.2711925727    
AX        0.6124115660         1.000366820         1.205863774    
AX       -0.6467453308       -0.9242576456        -1.243212474    
AX        -1.085984458         1.581612460       -0.7485028924E-01
AX       -0.9771287431         1.044637699        -1.112198006    
AX        -1.244936643        0.7912424395        0.6768103711    
AX         1.023855368        -1.469399648        0.1561870645    
AX        -1.270024317       -0.5762646989E-01   -0.9194645481    
AX         1.504386579        0.6945397966       -0.4993081343E-01
AX       -0.5013413271       -0.4433851196         1.714186795    
AX        0.1843676541        -1.203954039         1.340203739    