    38
Energy=    -170.956894617602    
AX        0.8356067101        0.4671274495        -1.348140333    
AX         1.479075195        -1.018590039        0.6912558268    
AX       -0.2843403337        -1.438316361        0.5927832451    
AX         1.186232280        -1.057297675       -0.3972538972    
AX        -1.550736399       -0.2003488256        0.2367962651    
AX        0.4101218540E-01     1.234377542        -1.563321100    
AX         1.215026459        0.4841440254E-01    0.7561223516    
AX        -1.298718021       -0.1163620327         1.326867780    
AX       -0.5078925750        0.6243715912         1.115958719    
AX        0.7800765816         1.535795317       -0.2202561347    
AX       -0.2334255285         1.805658345       -0.6397644832    
AX       -0.9280553206        -1.008816480       -0.2067393193    
AX        0.8706068394         1.128296578        0.8266074062    
AX       -0.5319186274       -0.9022251579        -1.245286474    
AX        -1.144614360         1.546202041       -0.4626972029E-01
AX       -0.8860174739        0.9684334028       -0.9797683874    
AX        -1.529054524        0.8087966017        0.7251301206    
AX        0.7451908806        -1.771605612        0.3465491824    
AX        -1.153373372       -0.9500327765E-01   -0.8045017251    
AX         1.549906199        0.7832474463       -0.3854974642E-02
AX       -0.5005541949       -0.8966084128         1.551233547    
AX        0.5507963417        -1.224365021         1.309781232    
AX        0.5418711705       -0.6089007093        -1.196272235    
AX         1.618805030       -0.3079963293        -1.119799611    
AX       -0.1417308132         1.374714768        0.3747345173    
AX        0.1113802211        -1.331365233       -0.4489764162    
AX        0.1188885036        0.7683794538       -0.5806457719    
AX         1.907891285       -0.2875894303       -0.3783503369E-01
AX       -0.2453281899        0.1606272266        -1.417555955    
AX        0.2829646810       -0.1487322353         1.338270628    
AX        -1.785439282        0.7022160648       -0.3648170944    
AX        -1.321082043        -1.113457380        0.8275272486    
AX       -0.5261523034       -0.3659939229        0.5989784930    
AX        0.4859354030       -0.6895425383        0.3668074611    
AX        0.2506278778        0.3696219659        0.3937946878    
AX        0.9008142138        0.4006942986E-02   -0.3608445048    
AX       -0.1485966602       -0.2713691430       -0.4150824560    
AX       -0.7556780343        0.5241986763        0.1778691578E-01
    38
Energy=    -170.956894617601    
AX        0.8356067069        0.4671274503        -1.348140333    
AX         1.479075193        -1.018590043        0.6912558257    
AX       -0.2843403386        -1.438316366        0.5927832437    
AX         1.186232280        -1.057297675       -0.3972538914    
AX        -1.550736401       -0.2003488272        0.2367962675    
AX        0.4101218452E-01     1.234377545        -1.563321100    
AX         1.215026459        0.4841440370E-01    0.7561223452    
AX        -1.298718029       -0.1163620333         1.326867783    
AX       -0.5078925737        0.6243715824         1.115958721    
AX        0.7800765822         1.535795321       -0.2202561414    
AX       -0.2334255280         1.805658351       -0.6397644827    
AX       -0.9280553224        -1.008816481       -0.2067393190    
AX        0.8706068406         1.128296587        0.8266073937    
AX       -0.5319186265       -0.9022251552        -1.245286474    
AX        -1.144614355         1.546202037       -0.4626971530E-01
AX       -0.8860174704        0.9684334010       -0.9797683854    
AX        -1.529054519        0.8087965991        0.7251301251    
AX        0.7451908780        -1.771605618        0.3465491816    
AX        -1.153373373       -0.9500327994E-01   -0.8045017232    
AX         1.549906204        0.7832474550       -0.3854973542E-02
AX       -0.5005542004       -0.8966084046         1.551233546    
AX        0.5507963287        -1.224365027         1.309781232    
AX        0.5418711759       -0.6089007172        -1.196272229    
AX         1.618805030       -0.3079963234        -1.119799611    
AX       -0.1417308142         1.374714770        0.3747345168    
AX        0.1113802211        -1.331365234       -0.4489764115    
AX        0.1188884993        0.7683794527       -0.5806457750    
AX         1.907891285       -0.2875894255       -0.3783503717E-01
AX       -0.2453281842        0.1606272270        -1.417555951    
AX        0.2829646870       -0.1487322343         1.338270623    
AX        -1.785439278        0.7022160624       -0.3648170949    
AX        -1.321082046        -1.113457380        0.8275272454    
AX       -0.5261523058       -0.3659939216        0.5989784914    
AX        0.4859354054       -0.6895425332        0.3668074626    
AX        0.2506278822        0.3696219539        0.3937946819    
AX        0.9008142080        0.4006947664E-02   -0.3608445002    
AX       -0.1485966553       -0.2713691330       -0.4150824510    
AX       -0.7556780312        0.5241986665        0.1778691536E-01
    38
Energy=    -170.956894617601    
AX        0.8356067389        0.4671274749        -1.348140295    
AX         1.479075213        -1.018590045        0.6912558130    
AX       -0.2843403201        -1.438316353        0.5927832445    
AX         1.186232268        -1.057297677       -0.3972539016    
AX        -1.550736405       -0.2003488434        0.2367962535    
AX        0.4101219881E-01     1.234377546        -1.563321086    
AX         1.215026465        0.4841439287E-01    0.7561223623    
AX        -1.298718042       -0.1163620400         1.326867781    
AX       -0.5078926151        0.6243716092         1.115958701    
AX        0.7800765978         1.535795275       -0.2202561733    
AX       -0.2334255308         1.805658367       -0.6397644651    
AX       -0.9280553208        -1.008816487       -0.2067393193    
AX        0.8706068774         1.128296558        0.8266073658    
AX       -0.5319186360       -0.9022251463        -1.245286472    
AX        -1.144614361         1.546202026       -0.4626969279E-01
AX       -0.8860174717        0.9684334163       -0.9797683776    
AX        -1.529054569        0.8087965707        0.7251301003    
AX        0.7451908850        -1.771605602        0.3465492011    
AX        -1.153373379       -0.9500327010E-01   -0.8045017336    
AX         1.549906235        0.7832474142       -0.3855009285E-02
AX       -0.5005541802       -0.8966084205         1.551233533    
AX        0.5507963753        -1.224364984         1.309781246    
AX        0.5418711654       -0.6089006889        -1.196272220    
AX         1.618805033       -0.3079963241        -1.119799615    
AX       -0.1417307941         1.374714782        0.3747345217    
AX        0.1113802185        -1.331365229       -0.4489764185    
AX        0.1188884897        0.7683794530       -0.5806457547    
AX         1.907891279       -0.2875894527       -0.3783504420E-01
AX       -0.2453281824        0.1606272286        -1.417555962    
AX        0.2829646574       -0.1487322108         1.338270640    
AX        -1.785439293        0.7022160614       -0.3648171078    
AX        -1.321082034        -1.113457393        0.8275272575    
AX       -0.5261523128       -0.3659939298        0.5989785035    
AX        0.4859353952       -0.6895425371        0.3668074744    
AX        0.2506278637        0.3696219754        0.3937946792    
AX        0.9008142095        0.4006942487E-02   -0.3608444933    
AX       -0.1485966714       -0.2713691509       -0.4150824542    
AX       -0.7556780478        0.5241986906        0.1778691699E-01
    38
Energy=    -170.956894617599    
AX        0.8356067650        0.4671275087        -1.348140252    
AX         1.479075230        -1.018590039        0.6912558032    
AX       -0.2843402995        -1.438316342        0.5927832605    
AX         1.186232250        -1.057297685       -0.3972539182    
AX        -1.550736404       -0.2003488655        0.2367962274    
AX        0.4101221774E-01     1.234377557        -1.563321053    
AX         1.215026459        0.4841438182E-01    0.7561223645    
AX        -1.298718056       -0.1163620518         1.326867764    
AX       -0.5078926721        0.6243716391         1.115958678    
AX        0.7800766290         1.535795241       -0.2202561983    
AX       -0.2334255350         1.805658375       -0.6397644379    
AX       -0.9280553206        -1.008816501       -0.2067393163    
AX        0.8706069352         1.128296522        0.8266073398    
AX       -0.5319186416       -0.9022251472        -1.245286476    
AX        -1.144614373         1.546202028       -0.4626967014E-01
AX       -0.8860174727        0.9684334369       -0.9797683717    
AX        -1.529054645        0.8087965407        0.7251300704    
AX        0.7451908924        -1.771605579        0.3465492258    
AX        -1.153373377       -0.9500325681E-01   -0.8045017463    
AX         1.549906267        0.7832473667       -0.3855069051E-02
AX       -0.5005541600       -0.8966084349         1.551233540    
AX        0.5507964339        -1.224364928         1.309781268    
AX        0.5418711514       -0.6089006514        -1.196272227    
AX         1.618805031       -0.3079963328        -1.119799621    
AX       -0.1417307699         1.374714799        0.3747345298    
AX        0.1113802218        -1.331365239       -0.4489764256    
AX        0.1188884722        0.7683794369       -0.5806457496    
AX         1.907891283       -0.2875894933       -0.3783505377E-01
AX       -0.2453281833        0.1606272470        -1.417555963    
AX        0.2829646280       -0.1487321758         1.338270656    
AX        -1.785439313        0.7022160605       -0.3648171287    
AX        -1.321082020        -1.113457410        0.8275272699    
AX       -0.5261523230       -0.3659939192        0.5989785077    
AX        0.4859353960       -0.6895425275        0.3668074806    
AX        0.2506278523        0.3696219631        0.3937947017    
AX        0.9008141945        0.4006921735E-02   -0.3608444782    
AX       -0.1485966864       -0.2713691392       -0.4150824498    
AX       -0.7556780587        0.5241986935        0.1778691777E-01
    38
Energy=    -170.956894617598    
AX        0.8356067842        0.4671275198        -1.348140237    
AX         1.479075239        -1.018590019        0.6912558055    
AX       -0.2843402852        -1.438316323        0.5927832669    
AX         1.186232243        -1.057297691       -0.3972539353    
AX        -1.550736400       -0.2003488671        0.2367962098    
AX        0.4101223227E-01     1.234377554        -1.563321037    
AX         1.215026451        0.4841438119E-01    0.7561223679    
AX        -1.298718045       -0.1163620607         1.326867749    
AX       -0.5078926976        0.6243716646         1.115958673    
AX        0.7800766378         1.535795218       -0.2202561945    
AX       -0.2334255400         1.805658346       -0.6397644281    
AX       -0.9280553252        -1.008816501       -0.2067393160    
AX        0.8706069626         1.128296498        0.8266073597    
AX       -0.5319186465       -0.9022251593        -1.245286476    
AX        -1.144614395         1.546202045       -0.4626967215E-01
AX       -0.8860174860        0.9684334500       -0.9797683804    
AX        -1.529054684        0.8087965354        0.7251300568    
AX        0.7451909006        -1.771605553        0.3465492321    
AX        -1.153373370       -0.9500324167E-01   -0.8045017570    
AX         1.549906270        0.7832473358       -0.3855091797E-02
AX       -0.5005541374       -0.8966084629         1.551233547    
AX        0.5507964850        -1.224364898         1.309781275    
AX        0.5418711344       -0.6089006239        -1.196272248    
AX         1.618805032       -0.3079963595        -1.119799616    
AX       -0.1417307619         1.374714802        0.3747345337    
AX        0.1113802211        -1.331365239       -0.4489764367    
AX        0.1188884757        0.7683794271       -0.5806457460    
AX         1.907891293       -0.2875895145       -0.3783504638E-01
AX       -0.2453281935        0.1606272553        -1.417555971    
AX        0.2829646107       -0.1487321687         1.338270669    
AX        -1.785439328        0.7022160666       -0.3648171334    
AX        -1.321082012        -1.113457415        0.8275272795    
AX       -0.5261523226       -0.3659939093        0.5989785029    
AX        0.4859353912       -0.6895425220        0.3668074708    
AX        0.2506278481        0.3696219707        0.3937947203    
AX        0.9008141926        0.4006903972E-02   -0.3608444722    
AX       -0.1485966994       -0.2713691543       -0.4150824454    
AX       -0.7556780731        0.5241987101        0.1778692097E-01
    38
Energy=    -170.956894617595    
AX        0.8356067950        0.4671275129        -1.348140245    
AX         1.479075241        -1.018589995        0.6912558133    
AX       -0.2843402816        -1.438316305        0.5927832588    
AX         1.186232243        -1.057297693       -0.3972539442    
AX        -1.550736395       -0.2003488556        0.2367962034    
AX        0.4101223973E-01     1.234377538        -1.563321036    
AX         1.215026439        0.4841438859E-01    0.7561223721    
AX        -1.298718027       -0.1163620655         1.326867744    
AX       -0.5078926906        0.6243716744         1.115958682    
AX        0.7800766317         1.535795207       -0.2202561735    
AX       -0.2334255458         1.805658305       -0.6397644320    
AX       -0.9280553388        -1.008816491       -0.2067393174    
AX        0.8706069625         1.128296487        0.8266074024    
AX       -0.5319186532       -0.9022251759        -1.245286474    
AX        -1.144614418         1.546202070       -0.4626968840E-01
AX       -0.8860175014        0.9684334543       -0.9797683966    
AX        -1.529054685        0.8087965471        0.7251300613    
AX        0.7451909058        -1.771605533        0.3465492241    
AX        -1.153373363       -0.9500322693E-01   -0.8045017630    
AX         1.549906257        0.7832473288       -0.3855077357E-02
AX       -0.5005541179       -0.8966084934         1.551233551    
AX        0.5507965158        -1.224364897         1.309781269    
AX        0.5418711230       -0.6089006138        -1.196272267    
AX         1.618805037       -0.3079963897        -1.119799607    
AX       -0.1417307689         1.374714801        0.3747345375    
AX        0.1113802185        -1.331365239       -0.4489764471    
AX        0.1188884827        0.7683794150       -0.5806457641    
AX         1.907891304       -0.2875895150       -0.3783503207E-01
AX       -0.2453282030        0.1606272529        -1.417555978    
AX        0.2829646087       -0.1487321767         1.338270665    
AX        -1.785439338        0.7022160738       -0.3648171257    
AX        -1.321082013        -1.113457412        0.8275272865    
AX       -0.5261523190       -0.3659938898        0.5989784913    
AX        0.4859353902       -0.6895425099        0.3668074543    
AX        0.2506278551        0.3696219744        0.3937947433    
AX        0.9008141972        0.4006893443E-02   -0.3608444722    
AX       -0.1485967079       -0.2713691663       -0.4150824410    
AX       -0.7556780806        0.5241987207        0.1778692236E-01
    38
Energy=    -170.956894617590    
AX        0.8356067797        0.4671275987        -1.348140164    
AX         1.479075245        -1.018590022        0.6912557974    
AX       -0.2843402540        -1.438316337        0.5927833555    
AX         1.186232218        -1.057297732       -0.3972539526    
AX        -1.550736406       -0.2003489222        0.2367961446    
AX        0.4101226929E-01     1.234377663        -1.563320950    
AX         1.215026460        0.4841437194E-01    0.7561222665    
AX        -1.298718101       -0.1163620929         1.326867692    
AX       -0.5078928165        0.6243716795         1.115958624    
AX        0.7800767077         1.535795218       -0.2202562277    
AX       -0.2334255220         1.805658348       -0.6397643596    
AX       -0.9280552852        -1.008816542       -0.2067393114    
AX        0.8706071040         1.128296471        0.8266072449    
AX       -0.5319186138       -0.9022251466        -1.245286491    
AX        -1.144614390         1.546202039       -0.4626961337E-01
AX       -0.8860174964        0.9684334830       -0.9797683612    
AX        -1.529054856        0.8087964751        0.7251300126    
AX        0.7451909056        -1.771605552        0.3465492707    
AX        -1.153373341       -0.9500325756E-01   -0.8045017713    
AX         1.549906337        0.7832472809       -0.3855255457E-02
AX       -0.5005541524       -0.8966084088         1.551233615    
AX        0.5507965106        -1.224364793         1.309781337    
AX        0.5418711122       -0.6089006052        -1.196272299    
AX         1.618804973       -0.3079963569        -1.119799611    
AX       -0.1417307027         1.374714759        0.3747345394    
AX        0.1113802313        -1.331365237       -0.4489764035    
AX        0.1188884550        0.7683793995       -0.5806456467    
AX         1.907891312       -0.2875895798       -0.3783509178E-01
AX       -0.2453281919        0.1606273269        -1.417555927    
AX        0.2829645917       -0.1487320866         1.338270710    
AX        -1.785439325        0.7022160574       -0.3648172053    
AX        -1.321081995        -1.113457440        0.8275272577    
AX       -0.5261523336       -0.3659939125        0.5989785007    
AX        0.4859353971       -0.6895425411        0.3668074810    
AX        0.2506278011        0.3696219825        0.3937947195    
AX        0.9008141450        0.4006868198E-02   -0.3608444473    
AX       -0.1485966994       -0.2713691231       -0.4150824221    
AX       -0.7556780718        0.5241986679        0.1778694361E-01
    38
Energy=    -170.956894617582    
AX        0.8356067285        0.4671276949        -1.348140086    
AX         1.479075265        -1.018590094        0.6912557604    
AX       -0.2843402227        -1.438316382        0.5927834635    
AX         1.186232195        -1.057297768       -0.3972539684    
AX        -1.550736415       -0.2003489955        0.2367960950    
AX        0.4101228036E-01     1.234377797        -1.563320854    
AX         1.215026464        0.4841432442E-01    0.7561221688    
AX        -1.298718180       -0.1163621100         1.326867648    
AX       -0.5078929550        0.6243716914         1.115958541    
AX        0.7800767815         1.535795205       -0.2202562720    
AX       -0.2334254698         1.805658420       -0.6397642863    
AX       -0.9280552003        -1.008816593       -0.2067393030    
AX        0.8706072286         1.128296434        0.8266071048    
AX       -0.5319185673       -0.9022251090        -1.245286500    
AX        -1.144614332         1.546201977       -0.4626954361E-01
AX       -0.8860174741        0.9684335131       -0.9797683168    
AX        -1.529055028        0.8087963932        0.7251299375    
AX        0.7451909014        -1.771605600        0.3465493311    
AX        -1.153373328       -0.9500330318E-01   -0.8045017704    
AX         1.549906425        0.7832472230       -0.3855384197E-02
AX       -0.5005541912       -0.8966082906         1.551233682    
AX        0.5507964908        -1.224364652         1.309781412    
AX        0.5418711078       -0.6089006106        -1.196272317    
AX         1.618804888       -0.3079962898        -1.119799637    
AX       -0.1417306351         1.374714743        0.3747345358    
AX        0.1113802407        -1.331365222       -0.4489763532    
AX        0.1188884319        0.7683794949       -0.5806456128    
AX         1.907891295       -0.2875896489       -0.3783517481E-01
AX       -0.2453281799        0.1606274085        -1.417555887    
AX        0.2829645604       -0.1487319429         1.338270737    
AX        -1.785439294        0.7022160234       -0.3648172886    
AX        -1.321081961        -1.113457479        0.8275272376    
AX       -0.5261523211       -0.3659939583        0.5989785043    
AX        0.4859353856       -0.6895425525        0.3668075001    
AX        0.2506277918        0.3696219439        0.3937947647    
AX        0.9008141230        0.4006844472E-02   -0.3608444439    
AX       -0.1485966918       -0.2713691572       -0.4150824029    
AX       -0.7556781393        0.5241986263        0.1778697823E-01
    38
Energy=    -170.956894617573    
AX        0.8356067007        0.4671277473        -1.348140034    
AX         1.479075272        -1.018590158        0.6912557342    
AX       -0.2843402177        -1.438316430        0.5927835176    
AX         1.186232181        -1.057297774       -0.3972539590    
AX        -1.550736427       -0.2003490498        0.2367960804    
AX        0.4101227570E-01     1.234377874        -1.563320812    
AX         1.215026485        0.4841429710E-01    0.7561221312    
AX        -1.298718259       -0.1163621125         1.326867634    
AX       -0.5078930278        0.6243716781         1.115958490    
AX        0.7800768301         1.535795218       -0.2202563414    
AX       -0.2334254513         1.805658537       -0.6397642413    
AX       -0.9280551521        -1.008816632       -0.2067392981    
AX        0.8706072876         1.128296424        0.8266069622    
AX       -0.5319185391       -0.9022250696        -1.245286508    
AX        -1.144614276         1.546201911       -0.4626948053E-01
AX       -0.8860174337        0.9684335226       -0.9797682692    
AX        -1.529055106        0.8087963329        0.7251298928    
AX        0.7451908882        -1.771605645        0.3465493812    
AX        -1.153373335       -0.9500333804E-01   -0.8045017651    
AX         1.549906492        0.7832472036       -0.3855485666E-02
AX       -0.5005542374       -0.8966081934         1.551233702    
AX        0.5507964423        -1.224364599         1.309781457    
AX        0.5418711227       -0.6089006152        -1.196272282    
AX         1.618804858       -0.3079962128        -1.119799676    
AX       -0.1417305893         1.374714749        0.3747345394    
AX        0.1113802507        -1.331365229       -0.4489763217    
AX        0.1188884044        0.7683795364       -0.5806455714    
AX         1.907891276       -0.2875896853       -0.3783523549E-01
AX       -0.2453281543        0.1606274408        -1.417555859    
AX        0.2829645534       -0.1487318714         1.338270751    
AX        -1.785439276        0.7022159971       -0.3648173333    
AX        -1.321081949        -1.113457509        0.8275272283    
AX       -0.5261523255       -0.3659939926        0.5989785220    
AX        0.4859353801       -0.6895425657        0.3668075343    
AX        0.2506277751        0.3696219128        0.3937947678    
AX        0.9008141045        0.4006853569E-02   -0.3608444312    
AX       -0.1485966796       -0.2713691368       -0.4150824062    
AX       -0.7556781436        0.5241985850        0.1778698541E-01
    38
Energy=    -170.956894617564    
AX        0.8356066897        0.4671277759        -1.348139994    
AX         1.479075275        -1.018590210        0.6912557159    
AX       -0.2843402177        -1.438316467        0.5927835402    
AX         1.186232177        -1.057297772       -0.3972539530    
AX        -1.550736437       -0.2003490819        0.2367960890    
AX        0.4101227129E-01     1.234377906        -1.563320799    
AX         1.215026491        0.4841427536E-01    0.7561221390    
AX        -1.298718289       -0.1163621071         1.326867638    
AX       -0.5078930678        0.6243716806         1.115958460    
AX        0.7800768583         1.535795242       -0.2202564070    
AX       -0.2334254478         1.805658640       -0.6397642273    
AX       -0.9280551248        -1.008816658       -0.2067392941    
AX        0.8706073033         1.128296424        0.8266068635    
AX       -0.5319185256       -0.9022250369        -1.245286515    
AX        -1.144614230         1.546201856       -0.4626944249E-01
AX       -0.8860173937        0.9684335219       -0.9797682307    
AX        -1.529055137        0.8087962978        0.7251298635    
AX        0.7451908800        -1.771605681        0.3465494143    
AX        -1.153373351       -0.9500335827E-01   -0.8045017571    
AX         1.549906516        0.7832471912       -0.3855548692E-02
AX       -0.5005542679       -0.8966081452         1.551233693    
AX        0.5507964106        -1.224364578         1.309781479    
AX        0.5418711364       -0.6089006094        -1.196272242    
AX         1.618804851       -0.3079961544        -1.119799708    
AX       -0.1417305629         1.374714772        0.3747345325    
AX        0.1113802595        -1.331365239       -0.4489763127    
AX        0.1188883844        0.7683795669       -0.5806455529    
AX         1.907891253       -0.2875897053       -0.3783526401E-01
AX       -0.2453281315        0.1606274531        -1.417555843    
AX        0.2829645365       -0.1487318399         1.338270761    
AX        -1.785439266        0.7022159820       -0.3648173497    
AX        -1.321081937        -1.113457527        0.8275272280    
AX       -0.5261523305       -0.3659940352        0.5989785561    
AX        0.4859353761       -0.6895425792        0.3668075694    
AX        0.2506277810        0.3696218787        0.3937947725    
AX        0.9008140890        0.4006860204E-02   -0.3608444211    
AX       -0.1485966693       -0.2713691160       -0.4150824319    
AX       -0.7556781528        0.5241985755        0.1778697789E-01
    38
Energy=    -170.956894617527    
AX        0.8356067043        0.4671278131        -1.348139941    
AX         1.479075237        -1.018590198        0.6912557359    
AX       -0.2843402766        -1.438316452        0.5927835684    
AX         1.186232175        -1.057297781       -0.3972539172    
AX        -1.550736462       -0.2003491435        0.2367960400    
AX        0.4101231434E-01     1.234377984        -1.563320701    
AX         1.215026508        0.4841432226E-01    0.7561220369    
AX        -1.298718417       -0.1163621584         1.326867576    
AX       -0.5078931395        0.6243716117         1.115958499    
AX        0.7800769001         1.535795369       -0.2202565645    
AX       -0.2334254994         1.805658728       -0.6397641521    
AX       -0.9280551464        -1.008816682       -0.2067392957    
AX        0.8706074134         1.128296431        0.8266066392    
AX       -0.5319184800       -0.9022250388        -1.245286496    
AX        -1.144614215         1.546201793       -0.4626936072E-01
AX       -0.8860173552        0.9684335416       -0.9797681702    
AX        -1.529055180        0.8087962248        0.7251298391    
AX        0.7451908372        -1.771605685        0.3465494790    
AX        -1.153373305       -0.9500334309E-01   -0.8045017839    
AX         1.549906556        0.7832472274       -0.3855760568E-02
AX       -0.5005543159       -0.8966080338         1.551233690    
AX        0.5507963356        -1.224364611         1.309781501    
AX        0.5418711429       -0.6089006090        -1.196272188    
AX         1.618804852       -0.3079961291        -1.119799744    
AX       -0.1417305081         1.374714763        0.3747345462    
AX        0.1113802548        -1.331365273       -0.4489762873    
AX        0.1188883927        0.7683795640       -0.5806454963    
AX         1.907891296       -0.2875897232       -0.3783531870E-01
AX       -0.2453280678        0.1606274701        -1.417555785    
AX        0.2829646048       -0.1487318605         1.338270760    
AX        -1.785439242        0.7022159495       -0.3648173576    
AX        -1.321081959        -1.113457564        0.8275272427    
AX       -0.5261524238       -0.3659941332        0.5989786637    
AX        0.4859353827       -0.6895426109        0.3668076205    
AX        0.2506278914        0.3696218564        0.3937948199    
AX        0.9008140539        0.4006870010E-02   -0.3608443732    
AX       -0.1485966330       -0.2713691090       -0.4150825124    
AX       -0.7556782249        0.5241986178        0.1778694960E-01
    38
Energy=    -170.956894617503    
AX        0.8356067420        0.4671278765        -1.348139843    
AX         1.479075137        -1.018590107        0.6912558226    
AX       -0.2843404550        -1.438316398        0.5927836173    
AX         1.186232182        -1.057297765       -0.3972538129    
AX        -1.550736547       -0.2003493280        0.2367958573    
AX        0.4101243993E-01     1.234378202        -1.563320373    
AX         1.215026722        0.4841441837E-01    0.7561217298    
AX        -1.298718929       -0.1163623162         1.326867397    
AX       -0.5078932867        0.6243713207         1.115958572    
AX        0.7800769587         1.535795694       -0.2202570011    
AX       -0.2334256603         1.805658919       -0.6397638808    
AX       -0.9280552212        -1.008816695       -0.2067393269    
AX        0.8706078351         1.128296499        0.8266061168    
AX       -0.5319183642       -0.9022251388        -1.245286429    
AX        -1.144614235         1.546201704       -0.4626914608E-01
AX       -0.8860172489        0.9684336519       -0.9797680824    
AX        -1.529055314        0.8087960245        0.7251297972    
AX        0.7451906798        -1.771605673        0.3465496979    
AX        -1.153373136       -0.9500328418E-01   -0.8045018991    
AX         1.549906698        0.7832473546       -0.3856355473E-02
AX       -0.5005544186       -0.8966076917         1.551233785    
AX        0.5507961012        -1.224364720         1.309781562    