    38
Energy=    -168.415319534113    
AX        0.8502590336        0.4535864302        -1.385789621    
AX         1.288088921       -0.9111757086         1.114133226    
AX       -0.3213942888        -1.381255910        0.3142012775    
AX         1.361590677        -1.059281560       -0.8354167243    
AX        -1.470834727       -0.1939364112        0.2814551977    
AX        0.2677381769E-01     1.166111507        -1.568781025    
AX         1.273928319        0.1687305393        0.8948995855    
AX        -1.304434233       -0.5189806118E-01     1.365563671    
AX       -0.4169912014        0.6342866462         1.149354413    
AX        0.8020361970         1.627423290       -0.2418932486    
AX       -0.2132153403         1.793759557       -0.6685767310    
AX        -1.175046474        -1.083292753       -0.2810704849    
AX        0.8840863079         1.188442211        0.7873523426    
AX       -0.5330065974       -0.9623087989        -1.206750216    
AX        -1.102018189         1.550590125       -0.5032441568E-01
AX       -0.8557701536        0.9338069554       -0.9489968246    
AX        -1.438126036        0.8520857111        0.7525117286    
AX         1.131215649        -1.539964873        0.1695511887    
AX        -1.198275392       -0.1078340034       -0.8112079719    
AX         1.241325822        0.6223855993       -0.1256316137    
AX       -0.5503150153       -0.7602046596         1.738979752    
AX        0.2569072039        -1.309957082         1.239574233    
AX        0.5430387635       -0.6766773563        -1.501502314    
AX         1.726464070       -0.1402353002E-01   -0.9048254142    
AX       -0.1039232563         1.365181519        0.3581542535    
AX        0.3261757147        -1.258570460       -0.5620419107    
AX        0.1901925268        0.7779467244       -0.5526493920    
AX         1.551732034       -0.4919485253        0.8643008873E-01
AX       -0.2046586345        0.9136704023E-01    -1.274487832    
AX        0.3694742832       -0.2003638941         1.384160075    
AX        -1.750038848        0.7000715787       -0.3098007091    
AX        -1.241148141        -1.103674803        0.8841048544    
AX       -0.4747969037       -0.3626441566        0.7288360796    
AX        0.5152580147       -0.6926634305        0.3892278145    
AX        0.3134198130        0.3360785566        0.3990739363    
AX        0.7004117762       -0.2028542056       -0.5448317896    
AX       -0.3011477433       -0.4117073982       -0.3022807069    
AX       -0.6972377691        0.5143835892        0.3929522810E-01
    38
Energy=    -168.415319534113    
AX        0.8502590433        0.4535864470        -1.385789602    
AX         1.288088932       -0.9111757144         1.114133226    
AX       -0.3213942874        -1.381255907        0.3142012896    
AX         1.361590666        -1.059281576       -0.8354167272    
AX        -1.470834720       -0.1939364186        0.2814551902    
AX        0.2677382083E-01     1.166111501        -1.568781024    
AX         1.273928316        0.1687305407        0.8948995676    
AX        -1.304434236       -0.5189807162E-01     1.365563667    
AX       -0.4169912069        0.6342866475         1.149354410    
AX        0.8020362055         1.627423305       -0.2418932531    
AX       -0.2132153383         1.793759565       -0.6685767321    
AX        -1.175046471        -1.083292764       -0.2810704926    
AX        0.8840863069         1.188442221        0.7873523372    
AX       -0.5330065910       -0.9623087912        -1.206750222    
AX        -1.102018187         1.550590125       -0.5032441128E-01
AX       -0.8557701486        0.9338069583       -0.9489968239    
AX        -1.438126042        0.8520856986        0.7525117270    
AX         1.131215648        -1.539964877        0.1695511870    
AX        -1.198275384       -0.1078340033       -0.8112079710    
AX         1.241325808        0.6223856011       -0.1256316342    
AX       -0.5503150273       -0.7602046675         1.738979758    
AX        0.2569072028        -1.309957075         1.239574248    
AX        0.5430387692       -0.6766773550        -1.501502324    
AX         1.726464060       -0.1402354660E-01   -0.9048254257    
AX       -0.1039232547         1.365181530        0.3581542567    
AX        0.3261757080        -1.258570457       -0.5620419043    
AX        0.1901925287        0.7779467388       -0.5526493865    
AX         1.551732028       -0.4919485276        0.8643007579E-01
AX       -0.2046586198        0.9136704232E-01    -1.274487816    
AX        0.3694742827       -0.2003638855         1.384160077    
AX        -1.750038840        0.7000715788       -0.3098007109    
AX        -1.241148145        -1.103674809        0.8841048518    
AX       -0.4747969052       -0.3626441606        0.7288360886    
AX        0.5152580238       -0.6926634371        0.3892278287    
AX        0.3134198100        0.3360785633        0.3990739383    
AX        0.7004117690       -0.2028542069       -0.5448317977    
AX       -0.3011477567       -0.4117074034       -0.3022806965    
AX       -0.6972377674        0.5143835904        0.3929523008E-01
    38
Energy=    -168.415319534112    
AX        0.8502590534        0.4535864598        -1.385789583    
AX         1.288088935       -0.9111757134         1.114133220    
AX       -0.3213942868        -1.381255905        0.3142012979    
AX         1.361590657        -1.059281589       -0.8354167308    
AX        -1.470834712       -0.1939364248        0.2814551875    
AX        0.2677382314E-01     1.166111499        -1.568781027    
AX         1.273928316        0.1687305420        0.8948995493    
AX        -1.304434242       -0.5189807940E-01     1.365563671    
AX       -0.4169912112        0.6342866521         1.149354410    
AX        0.8020362057         1.627423317       -0.2418932496    
AX       -0.2132153368         1.793759574       -0.6685767349    
AX        -1.175046469        -1.083292772       -0.2810705008    
AX        0.8840862995         1.188442221        0.7873523320    
AX       -0.5330065830       -0.9623087815        -1.206750228    
AX        -1.102018187         1.550590127       -0.5032441056E-01
AX       -0.8557701412        0.9338069614       -0.9489968228    
AX        -1.438126047        0.8520856898        0.7525117259    
AX         1.131215642        -1.539964879        0.1695511859    
AX        -1.198275374       -0.1078340033       -0.8112079714    
AX         1.241325795        0.6223856000       -0.1256316520    
AX       -0.5503150306       -0.7602046718         1.738979770    
AX        0.2569072052        -1.309957064         1.239574256    
AX        0.5430387781       -0.6766773509        -1.501502333    
AX         1.726464055       -0.1402356368E-01   -0.9048254297    
AX       -0.1039232578         1.365181534        0.3581542575    
AX        0.3261757023        -1.258570461       -0.5620419048    
AX        0.1901925305        0.7779467497       -0.5526493804    
AX         1.551732024       -0.4919485348        0.8643006560E-01
AX       -0.2046586058        0.9136704453E-01    -1.274487802    
AX        0.3694742884       -0.2003638740         1.384160081    
AX        -1.750038834        0.7000715779       -0.3098007147    
AX        -1.241148146        -1.103674812        0.8841048512    
AX       -0.4747969051       -0.3626441629        0.7288360978    
AX        0.5152580293       -0.6926634541        0.3892278407    
AX        0.3134198016        0.3360785732        0.3990739360    
AX        0.7004117706       -0.2028542048       -0.5448318108    
AX       -0.3011477768       -0.4117074077       -0.3022806795    
AX       -0.6972377650        0.5143835874        0.3929523050E-01
    38
Energy=    -168.415319534111    
AX        0.8502590795        0.4535864983        -1.385789539    
AX         1.288088940       -0.9111757034         1.114133205    
AX       -0.3213942910        -1.381255909        0.3142013178    
AX         1.361590635        -1.059281624       -0.8354167442    
AX        -1.470834687       -0.1939364420        0.2814551835    
AX        0.2677382525E-01     1.166111498        -1.568781046    
AX         1.273928315        0.1687305479        0.8948994926    
AX        -1.304434271       -0.5189810470E-01     1.365563692    
AX       -0.4169912283        0.6342866696         1.149354418    
AX        0.8020361989         1.627423350       -0.2418932322    
AX       -0.2132153282         1.793759602       -0.6685767470    
AX        -1.175046470        -1.083292797       -0.2810705272    
AX        0.8840862771         1.188442216        0.7873523126    
AX       -0.5330065511       -0.9623087468        -1.206750241    
AX        -1.102018181         1.550590134       -0.5032440893E-01
AX       -0.8557701122        0.9338069717       -0.9489968122    
AX        -1.438126057        0.8520856668        0.7525117217    
AX         1.131215640        -1.539964894        0.1695511768    
AX        -1.198275351       -0.1078339980       -0.8112079784    
AX         1.241325761        0.6223855979       -0.1256316945    
AX       -0.5503150369       -0.7602046877         1.738979805    
AX        0.2569072122        -1.309957029         1.239574288    
AX        0.5430388051       -0.6766773363        -1.501502368    
AX         1.726464057       -0.1402361201E-01   -0.9048254387    
AX       -0.1039232744         1.365181537        0.3581542546    
AX        0.3261756806        -1.258570471       -0.5620419139    
AX        0.1901925363        0.7779467854       -0.5526493728    
AX         1.551732013       -0.4919485562        0.8643003868E-01
AX       -0.2046585676        0.9136704942E-01    -1.274487758    
AX        0.3694743083       -0.2003638285         1.384160094    
AX        -1.750038808        0.7000715782       -0.3098007282    
AX        -1.241148151        -1.103674822        0.8841048442    
AX       -0.4747968986       -0.3626441651        0.7288361612    
AX        0.5152580187       -0.6926634427        0.3892278312    
AX        0.3134197850        0.3360785486        0.3990739306    
AX        0.7004117248       -0.2028542334       -0.5448318099    
AX       -0.3011477777       -0.4117074394       -0.3022806429    
AX       -0.6972377709        0.5143835920        0.3929523433E-01
    38
Energy=    -168.415319534110    
AX        0.8502590920        0.4535865116        -1.385789518    
AX         1.288088930       -0.9111756912         1.114133193    
AX       -0.3213942935        -1.381255914        0.3142013193    
AX         1.361590628        -1.059281636       -0.8354167496    
AX        -1.470834676       -0.1939364487        0.2814551889    
AX        0.2677382540E-01     1.166111507        -1.568781058    
AX         1.273928322        0.1687305473        0.8948994696    
AX        -1.304434286       -0.5189810858E-01     1.365563711    
AX       -0.4169912326        0.6342866811         1.149354424    
AX        0.8020361813         1.627423361       -0.2418932104    
AX       -0.2132153280         1.793759617       -0.6685767540    
AX        -1.175046472        -1.083292803       -0.2810705380    
AX        0.8840862611         1.188442198        0.7873523057    
AX       -0.5330065390       -0.9623087300        -1.206750246    
AX        -1.102018184         1.550590138       -0.5032441567E-01
AX       -0.8557700972        0.9338069750       -0.9489968077    
AX        -1.438126061        0.8520856646        0.7525117202    
AX         1.131215631        -1.539964898        0.1695511741    
AX        -1.198275341       -0.1078339974       -0.8112079850    
AX         1.241325751        0.6223855952       -0.1256317108    
AX       -0.5503150246       -0.7602046829         1.738979826    
AX        0.2569072180        -1.309957009         1.239574289    
AX        0.5430388210       -0.6766773283        -1.501502379    
AX         1.726464066       -0.1402363444E-01   -0.9048254320    
AX       -0.1039232891         1.365181528        0.3581542512    
AX        0.3261756722        -1.258570487       -0.5620419283    
AX        0.1901925374        0.7779467970       -0.5526493677    
AX         1.551732011       -0.4919485745        0.8643003263E-01
AX       -0.2046585511        0.9136705141E-01    -1.274487743    
AX        0.3694743252       -0.2003638072         1.384160101    
AX        -1.750038801        0.7000715732       -0.3098007371    
AX        -1.241148145        -1.103674822        0.8841048466    
AX       -0.4747968924       -0.3626441612        0.7288361846    
AX        0.5152580088       -0.6926634482        0.3892278219    
AX        0.3134197722        0.3360785416        0.3990739219    
AX        0.7004117173       -0.2028542406       -0.5448318132    
AX       -0.3011477868       -0.4117074500       -0.3022806200    
AX       -0.6972377707        0.5143835862        0.3929523336E-01
    38
Energy=    -168.415319534110    
AX        0.8502590964        0.4535865158        -1.385789510    
AX         1.288088918       -0.9111756864         1.114133188    
AX       -0.3213942948        -1.381255917        0.3142013140    
AX         1.361590625        -1.059281637       -0.8354167502    
AX        -1.470834673       -0.1939364524        0.2814551954    
AX        0.2677382373E-01     1.166111516        -1.568781067    
AX         1.273928330        0.1687305433        0.8948994629    
AX        -1.304434294       -0.5189810486E-01     1.365563723    
AX       -0.4169912328        0.6342866894         1.149354429    
AX        0.8020361631         1.627423365       -0.2418931902    
AX       -0.2132153309         1.793759627       -0.6685767578    
AX        -1.175046475        -1.083292804       -0.2810705420    
AX        0.8840862544         1.188442179        0.7873523035    
AX       -0.5330065371       -0.9623087211        -1.206750251    
AX        -1.102018188         1.550590139       -0.5032442412E-01
AX       -0.8557700882        0.9338069748       -0.9489968044    
AX        -1.438126061        0.8520856700        0.7525117191    
AX         1.131215626        -1.539964900        0.1695511712    
AX        -1.198275337       -0.1078339985       -0.8112079919    
AX         1.241325751        0.6223855946       -0.1256317169    
AX       -0.5503150107       -0.7602046709         1.738979838    
AX        0.2569072175        -1.309957000         1.239574284    
AX        0.5430388284       -0.6766773267        -1.501502381    
AX         1.726464075       -0.1402364367E-01   -0.9048254245    
AX       -0.1039233012         1.365181520        0.3581542497    
AX        0.3261756672        -1.258570498       -0.5620419408    
AX        0.1901925366        0.7779468021       -0.5526493634    
AX         1.551732012       -0.4919485858        0.8643003427E-01
AX       -0.2046585433        0.9136705113E-01    -1.274487738    
AX        0.3694743356       -0.2003637959         1.384160104    
AX        -1.750038798        0.7000715658       -0.3098007437    
AX        -1.241148133        -1.103674823        0.8841048508    
AX       -0.4747968849       -0.3626441550        0.7288361925    
AX        0.5152579962       -0.6926634436        0.3892278092    
AX        0.3134197678        0.3360785328        0.3990739134    
AX        0.7004117121       -0.2028542445       -0.5448318088    
AX       -0.3011477853       -0.4117074575       -0.3022806084    
AX       -0.6972377693        0.5143835813        0.3929523302E-01
    38
Energy=    -168.415319534106    
AX        0.8502590973        0.4535865092        -1.385789509    
AX         1.288088896       -0.9111757010         1.114133192    
AX       -0.3213942969        -1.381255916        0.3142012989    
AX         1.361590624        -1.059281625       -0.8354167437    
AX        -1.470834678       -0.1939364577        0.2814552069    
AX        0.2677381967E-01     1.166111531        -1.568781082    
AX         1.273928350        0.1687305313        0.8948994680    
AX        -1.304434300       -0.5189809133E-01     1.365563735    
AX       -0.4169912318        0.6342867040         1.149354435    
AX        0.8020361313         1.627423363       -0.2418931581    
AX       -0.2132153410         1.793759645       -0.6685767578    
AX        -1.175046486        -1.083292799       -0.2810705407    
AX        0.8840862563         1.188442158        0.7873523072    
AX       -0.5330065459       -0.9623087137        -1.206750261    
AX        -1.102018196         1.550590135       -0.5032444227E-01
AX       -0.8557700779        0.9338069687       -0.9489968007    
AX        -1.438126064        0.8520856871        0.7525117199    
AX         1.131215631        -1.539964907        0.1695511630    
AX        -1.198275333       -0.1078340047       -0.8112080051    
AX         1.241325758        0.6223855877       -0.1256317209    
AX       -0.5503149847       -0.7602046465         1.738979847    
AX        0.2569072063        -1.309957001         1.239574278    
AX        0.5430388281       -0.6766773369        -1.501502382    
AX         1.726464087       -0.1402364567E-01   -0.9048254141    
AX       -0.1039233200         1.365181511        0.3581542547    
AX        0.3261756645        -1.258570517       -0.5620419593    
AX        0.1901925326        0.7779468043       -0.5526493388    
AX         1.551732016       -0.4919485913        0.8643004013E-01
AX       -0.2046585369        0.9136704454E-01    -1.274487742    
AX        0.3694743483       -0.2003637820         1.384160100    
AX        -1.750038794        0.7000715494       -0.3098007569    
AX        -1.241148105        -1.103674827        0.8841048619    
AX       -0.4747968617       -0.3626441411        0.7288361721    
AX        0.5152579695       -0.6926634168        0.3892277935    
AX        0.3134197685        0.3360785162        0.3990738858    
AX        0.7004117231       -0.2028542330       -0.5448317965    
AX       -0.3011478011       -0.4117074568       -0.3022805777    
AX       -0.6972377530        0.5143835640        0.3929522986E-01
    38
Energy=    -168.415319534103    
AX        0.8502592204        0.4535866097        -1.385789421    
AX         1.288088947       -0.9111755750         1.114133122    
AX       -0.3213943475        -1.381255914        0.3142013111    
AX         1.361590623        -1.059281722       -0.8354168010    
AX        -1.470834616       -0.1939364413        0.2814552248    
AX        0.2677390954E-01     1.166111534        -1.568781030    
AX         1.273928367        0.1687305668        0.8948993487    
AX        -1.304434263       -0.5189810564E-01     1.365563799    
AX       -0.4169912431        0.6342866845         1.149354431    
AX        0.8020361330         1.627423365       -0.2418931206    
AX       -0.2132153527         1.793759601       -0.6685767583    
AX        -1.175046505        -1.083292784       -0.2810705573    
AX        0.8840861124         1.188442103        0.7873523613    
AX       -0.5330064966       -0.9623087059        -1.206750228    
AX        -1.102018276         1.550590141       -0.5032446509E-01
AX       -0.8557700990        0.9338069835       -0.9489968666    
AX        -1.438126087        0.8520856347        0.7525117161    
AX         1.131215486        -1.539964952        0.1695512018    
AX        -1.198275328       -0.1078339833       -0.8112080141    
AX         1.241325716        0.6223856046       -0.1256317644    
AX       -0.5503148935       -0.7602046179         1.738979922    
AX        0.2569072758        -1.309956963         1.239574216    
AX        0.5430389255       -0.6766772779        -1.501502434    
AX         1.726464134       -0.1402372069E-01   -0.9048253545    
AX       -0.1039233703         1.365181519        0.3581542291    
AX        0.3261756583        -1.258570485       -0.5620419592    
AX        0.1901925324        0.7779467989       -0.5526493721    
AX         1.551731987       -0.4919487124        0.8643000757E-01
AX       -0.2046584751        0.9136706002E-01    -1.274487724    
AX        0.3694744189       -0.2003637939         1.384160095    
AX        -1.750038850        0.7000715292       -0.3098007566    
AX        -1.241148167        -1.103674772        0.8841049379    
AX       -0.4747968759       -0.3626441560        0.7288362516    
AX        0.5152579885       -0.6926634690        0.3892277611    
AX        0.3134196988        0.3360785317        0.3990739200    
AX        0.7004116871       -0.2028542948       -0.5448318405    
AX       -0.3011477885       -0.4117074177       -0.3022805829    
AX       -0.6972377867        0.5143835978        0.3929519261E-01
    38
Energy=    -168.415319534094    
AX        0.8502593476        0.4535866909        -1.385789342    
AX         1.288089043       -0.9111755035         1.114133085    
AX       -0.3213944027        -1.381255877        0.3142013368    
AX         1.361590625        -1.059281811       -0.8354168484    
AX        -1.470834575       -0.1939364196        0.2814552296    
AX        0.2677401085E-01     1.166111522        -1.568780973    
AX         1.273928374        0.1687306052        0.8948992461    
AX        -1.304434212       -0.5189812768E-01     1.365563843    
AX       -0.4169912755        0.6342866715         1.149354421    
AX        0.8020361667         1.627423346       -0.2418931273    
AX       -0.2132153702         1.793759548       -0.6685767394    
AX        -1.175046530        -1.083292756       -0.2810705577    
AX        0.8840860016         1.188442108        0.7873524272    
AX       -0.5330064560       -0.9623087150        -1.206750186    
AX        -1.102018350         1.550590133       -0.5032447847E-01
AX       -0.8557701426        0.9338069882       -0.9489969388    
AX        -1.438126127        0.8520855697        0.7525117160    
AX         1.131215384        -1.539965024        0.1695512357    
AX        -1.198275326       -0.1078339615       -0.8112080223    
AX         1.241325658        0.6223855897       -0.1256318038    
AX       -0.5503148180       -0.7602046355         1.738979959    
AX        0.2569073476        -1.309956981         1.239574179    
AX        0.5430389927       -0.6766772466        -1.501502501    
AX         1.726464158       -0.1402377535E-01   -0.9048253137    
AX       -0.1039234109         1.365181565        0.3581542161    
AX        0.3261756514        -1.258570423       -0.5620419225    
AX        0.1901925390        0.7779467762       -0.5526493348    
AX         1.551731959       -0.4919487902        0.8642995509E-01
AX       -0.2046584259        0.9136705387E-01    -1.274487736    
AX        0.3694744696       -0.2003638236         1.384160068    
AX        -1.750038905        0.7000715170       -0.3098007586    
AX        -1.241148252        -1.103674719        0.8841050098    
AX       -0.4747968653       -0.3626441884        0.7288362600    
AX        0.5152579751       -0.6926634263        0.3892277590    
AX        0.3134196626        0.3360785253        0.3990739159    
AX        0.7004116980       -0.2028543056       -0.5448318744    
AX       -0.3011478103       -0.4117073640       -0.3022805547    
AX       -0.6972378105        0.5143836660        0.3929515113E-01
    38
Energy=    -168.415319534086    
AX        0.8502593813        0.4535867135        -1.385789324    
AX         1.288089104       -0.9111754777         1.114133073    
AX       -0.3213944194        -1.381255864        0.3142013694    
AX         1.361590627        -1.059281848       -0.8354168762    
AX        -1.470834550       -0.1939364089        0.2814552074    
AX        0.2677404424E-01     1.166111490        -1.568780942    
AX         1.273928344        0.1687306371        0.8948992067    
AX        -1.304434199       -0.5189816135E-01     1.365563835    
AX       -0.4169912940        0.6342866495         1.149354409    
AX        0.8020362340         1.627423344       -0.2418931862    
AX       -0.2132153537         1.793759509       -0.6685767299    
AX        -1.175046527        -1.083292760       -0.2810705632    
AX        0.8840859722         1.188442161        0.7873524432    
AX       -0.5330064253       -0.9623087280        -1.206750160    
AX        -1.102018349         1.550590136       -0.5032445068E-01
AX       -0.8557701693        0.9338069990       -0.9489969620    
AX        -1.438126138        0.8520855210        0.7525117167    
AX         1.131215374        -1.539965040        0.1695512497    
AX        -1.198275325       -0.1078339461       -0.8112080054    
AX         1.241325618        0.6223855800       -0.1256318098    
AX       -0.5503148458       -0.7602046876         1.738979962    
AX        0.2569073762        -1.309956984         1.239574197    
AX        0.5430390057       -0.6766772271        -1.501502535    
AX         1.726464142       -0.1402378422E-01   -0.9048253256    
AX       -0.1039233894         1.365181598        0.3581542093    
AX        0.3261756589        -1.258570379       -0.5620418837    
AX        0.1901925531        0.7779467672       -0.5526493378    
AX         1.551731941       -0.4919487880        0.8642991924E-01
AX       -0.2046584218        0.9136705552E-01    -1.274487730    
AX        0.3694744672       -0.2003638426         1.384160065    
AX        -1.750038921        0.7000715428       -0.3098007419    
AX        -1.241148327        -1.103674705        0.8841050121    
AX       -0.4747968809       -0.3626442272        0.7288362811    
AX        0.5152579966       -0.6926634243        0.3892277881    
AX        0.3134196556        0.3360785281        0.3990739397    
AX        0.7004117002       -0.2028543070       -0.5448319026    
AX       -0.3011478284       -0.4117073458       -0.3022805560    
AX       -0.6972378302        0.5143837041        0.3929513866E-01
    38
Energy=    -168.415319534056    
AX        0.8502593437        0.4535866854        -1.385789361    
AX         1.288089222       -0.9111754223         1.114133077    
AX       -0.3213944188        -1.381255867        0.3142014612    
AX         1.361590634        -1.059281858       -0.8354169183    
AX        -1.470834510       -0.1939363878        0.2814551304    
AX        0.2677402948E-01     1.166111426        -1.568780929    
AX         1.273928230        0.1687306825        0.8948992169    
AX        -1.304434249       -0.5189824692E-01     1.365563796    
AX       -0.4169913484        0.6342866275         1.149354413    
AX        0.8020363969         1.627423351       -0.2418933591    
AX       -0.2132152829         1.793759458       -0.6685767405    
AX        -1.175046469        -1.083292800       -0.2810705817    
AX        0.8840860401         1.188442261        0.7873523774    
AX       -0.5330063718       -0.9623087654        -1.206750107    
AX        -1.102018265         1.550590169       -0.5032434328E-01
AX       -0.8557702013        0.9338070332       -0.9489969398    
AX        -1.438126148        0.8520854385        0.7525117177    
AX         1.131215480        -1.539965010        0.1695512385    
AX        -1.198275330       -0.1078339215       -0.8112079432    
AX         1.241325562        0.6223855315       -0.1256318006    
AX       -0.5503150219       -0.7602048816         1.738979925    
AX        0.2569074359        -1.309956967         1.239574278    
AX        0.5430389786       -0.6766772008        -1.501502556    
AX         1.726464047       -0.1402375064E-01   -0.9048253849    
AX       -0.1039232743         1.365181648        0.3581541721    
AX        0.3261756743        -1.258570345       -0.5620417987    
AX        0.1901926128        0.7779467576       -0.5526493723    
AX         1.551731920       -0.4919486973        0.8642986139E-01
AX       -0.2046584699        0.9136705980E-01    -1.274487709    
AX        0.3694743896       -0.2003638823         1.384160110    
AX        -1.750038898        0.7000716443       -0.3098006913    
AX        -1.241148489        -1.103674710        0.8841049029    
AX       -0.4747969148       -0.3626443149        0.7288362838    
AX        0.5152579902       -0.6926633585        0.3892278717    
AX        0.3134196967        0.3360784610        0.3990740135    
AX        0.7004117521       -0.2028542609       -0.5448319445    
AX       -0.3011478884       -0.4117073614       -0.3022805124    
AX       -0.6972378864        0.5143837745        0.3929514700E-01
    38
Energy=    -168.415319534021    
AX        0.8502597493        0.4535870273        -1.385788903    
AX         1.288089201       -0.9111756322         1.114133055    
AX       -0.3213944238        -1.381255649        0.3142013688    
AX         1.361590549        -1.059282196       -0.8354167188    
AX        -1.470834700       -0.1939363771        0.2814553674    
AX        0.2677427780E-01     1.166111597        -1.568780841    
AX         1.273928450        0.1687306407        0.8948989091    
AX        -1.304433886       -0.5189806399E-01     1.365563974    
AX       -0.4169912494        0.6342867320         1.149354379    
AX        0.8020359720         1.627423326       -0.2418930552    
AX       -0.2132155875         1.793759467       -0.6685766263    
AX        -1.175046554        -1.083292545       -0.2810704595    
AX        0.8840856730         1.188442259        0.7873526264    
AX       -0.5330064494       -0.9623086126        -1.206750214    
AX        -1.102018661         1.550590026       -0.5032464060E-01
AX       -0.8557702166        0.9338069009       -0.9489971373    
AX        -1.438126248        0.8520854907        0.7525117142    
AX         1.131214864        -1.539965387        0.1695514866    
AX        -1.198275275       -0.1078339321       -0.8112080942    
AX         1.241325536        0.6223856412       -0.1256319237    
AX       -0.5503143621       -0.7602046337         1.738979786    
AX        0.2569076209        -1.309957308         1.239574064    