    38
Energy=    -169.304465679696    
AX        0.8677469914        0.5366125413        -1.365048741    
AX         1.228970900       -0.8619915391         1.082084609    
AX       -0.4619531545        -1.285569529        0.3627145672    
AX         1.216094530        -1.211417552       -0.9015821334    
AX        -1.295732342       -0.4976205608        0.1418846261    
AX       -0.1305122105E-01     1.213582003        -1.499396287    
AX         1.324146113        0.2020979253        0.7609674831    
AX        -1.355467950        0.1181116948         1.058315046    
AX       -0.3713211272        0.6396494242         1.291719926    
AX        0.7348588471         1.379745247        0.8022571301E-01
AX       -0.1997840394         1.686710549       -0.5107438784    
AX       -0.9312272257        -1.238102514       -0.6126508367    
AX        0.6711973691         1.063078614         1.194639346    
AX       -0.2019125034       -0.9353908906        -1.366430919    
AX        -1.204272036         1.499526027       -0.1008795401    
AX       -0.8683205659        0.8206029122       -0.8867627279    
AX        -1.257924373         1.195212571        0.9393068631    
AX         1.066444886        -1.549482849        0.1963472604    
AX        -1.184947087       -0.2218569544       -0.9746363119    
AX         1.214585759        0.4812164713       -0.2932755418    
AX       -0.5401704227       -0.3210306569         1.831516302    
AX        0.1142998748        -1.106848949         1.280003583    
AX        0.7659897661       -0.5198153305        -1.742488343    
AX         1.649023987       -0.1990350585        -1.084323851    
AX       -0.2350881753         1.427480157        0.5563496533    
AX        0.2160764717        -1.325279226       -0.4661792056    
AX        0.1462180215        0.6674028693       -0.5535971152    
AX         1.508010779       -0.5577174709       -0.3226650308E-01
AX       -0.1728515849        0.1193797484        -1.407668996    
AX        0.4726815118       -0.7585039531E-01     1.390979849    
AX        -1.715761483        0.4716939570       -0.2217208158    
AX        -1.146011970       -0.9854060278         1.170109326    
AX       -0.4135184820       -0.2978752114        0.7628079078    
AX        0.4926333984       -0.6342723482        0.3352948683    
AX        0.3166077081        0.4132369961        0.4312247404    
AX        0.6307787483       -0.3197379806       -0.7002811158    
AX       -0.3383521384       -0.3341573765       -0.3273222417    
AX       -0.7286977799        0.5431187137        0.1807634367    
    38
Energy=    -169.304465679695    
AX        0.8677469915        0.5366125398        -1.365048740    
AX         1.228970898       -0.8619915383         1.082084617    
AX       -0.4619531540        -1.285569527        0.3627145656    
AX         1.216094526        -1.211417553       -0.9015821338    
AX        -1.295732340       -0.4976205554        0.1418846214    
AX       -0.1305122496E-01     1.213581999        -1.499396289    
AX         1.324146108        0.2020979192        0.7609674780    
AX        -1.355467951        0.1181116933         1.058315054    
AX       -0.3713211252        0.6396494268         1.291719933    
AX        0.7348588497         1.379745253        0.8022571718E-01
AX       -0.1997840447         1.686710546       -0.5107438766    
AX       -0.9312272202        -1.238102514       -0.6126508427    
AX        0.6711973753         1.063078611         1.194639349    
AX       -0.2019124978       -0.9353909005        -1.366430929    
AX        -1.204272040         1.499526028       -0.1008795368    
AX       -0.8683205658        0.8206029089       -0.8867627266    
AX        -1.257924367         1.195212574        0.9393068711    
AX         1.066444886        -1.549482848        0.1963472630    
AX        -1.184947085       -0.2218569554       -0.9746363134    
AX         1.214585755        0.4812164725       -0.2932755412    
AX       -0.5401704276       -0.3210306516         1.831516304    
AX        0.1142998772        -1.106848948         1.280003584    
AX        0.7659897688       -0.5198153372        -1.742488345    
AX         1.649023988       -0.1990350570        -1.084323860    
AX       -0.2350881721         1.427480158        0.5563496584    
AX        0.2160764701        -1.325279228       -0.4661792062    
AX        0.1462180207        0.6674028685       -0.5535971165    
AX         1.508010783       -0.5577174723       -0.3226651132E-01
AX       -0.1728515766        0.1193797420        -1.407668998    
AX        0.4726815081       -0.7585039448E-01     1.390979844    
AX        -1.715761489        0.4716939610       -0.2217208237    
AX        -1.146011974       -0.9854060325         1.170109325    
AX       -0.4135184837       -0.2978752074        0.7628079098    
AX        0.4926334030       -0.6342723441        0.3352948695    
AX        0.3166076990        0.4132370005        0.4312247412    
AX        0.6307787533       -0.3197379796       -0.7002811188    
AX       -0.3383521385       -0.3341573717       -0.3273222409    
AX       -0.7286977852        0.5431187142        0.1807634447    
    38
Energy=    -169.304465679693    
AX        0.8677469890        0.5366125303        -1.365048737    
AX         1.228970888       -0.8619915386         1.082084627    
AX       -0.4619531478        -1.285569522        0.3627145540    
AX         1.216094530        -1.211417548       -0.9015821257    
AX        -1.295732332       -0.4976205531        0.1418846085    
AX       -0.1305123890E-01     1.213581983        -1.499396293    
AX         1.324146108        0.2020979117        0.7609674800    
AX        -1.355467955        0.1181116961         1.058315065    
AX       -0.3713211166        0.6396494327         1.291719944    
AX        0.7348588556         1.379745272        0.8022571989E-01
AX       -0.1997840512         1.686710547       -0.5107438798    
AX       -0.9312272027        -1.238102515       -0.6126508614    
AX        0.6711973933         1.063078605         1.194639354    
AX       -0.2019124978       -0.9353909342        -1.366430980    
AX        -1.204272037         1.499526031       -0.1008795215    
AX       -0.8683205720        0.8206028960       -0.8867627180    
AX        -1.257924350         1.195212587        0.9393068995    
AX         1.066444881        -1.549482844        0.1963472570    
AX        -1.184947092       -0.2218569633       -0.9746363138    
AX         1.214585747        0.4812164772       -0.2932755345    
AX       -0.5401704369       -0.3210306365         1.831516307    
AX        0.1142998739        -1.106848945         1.280003588    
AX        0.7659897790       -0.5198153634        -1.742488332    
AX         1.649023990       -0.1990350475        -1.084323863    
AX       -0.2350881620         1.427480158        0.5563496609    
AX        0.2160764639        -1.325279222       -0.4661792263    
AX        0.1462180205        0.6674028744       -0.5535971083    
AX         1.508010788       -0.5577174672       -0.3226651566E-01
AX       -0.1728515670        0.1193797139        -1.407668989    
AX        0.4726815010       -0.7585039457E-01     1.390979834    
AX        -1.715761502        0.4716939658       -0.2217208261    
AX        -1.146011980       -0.9854060394         1.170109319    
AX       -0.4135184780       -0.2978751937        0.7628079011    
AX        0.4926334003       -0.6342723389        0.3352948758    
AX        0.3166076817        0.4132370028        0.4312247331    
AX        0.6307787874       -0.3197379717       -0.7002811305    
AX       -0.3383521683       -0.3341573550       -0.3273222367    
AX       -0.7286977898        0.5431187091        0.1807634651    
    38
Energy=    -169.304465679694    
AX        0.8677470109        0.5366125720        -1.365048746    
AX         1.228970928       -0.8619915276         1.082084639    
AX       -0.4619531838        -1.285569549        0.3627146005    
AX         1.216094474        -1.211417588       -0.9015821707    
AX        -1.295732340       -0.4976205397        0.1418846293    
AX       -0.1305118358E-01     1.213582052        -1.499396280    
AX         1.324146097        0.2020978980        0.7609674460    
AX        -1.355467955        0.1181116657         1.058315080    
AX       -0.3713211594        0.6396494227         1.291719940    
AX        0.7348588342         1.379745211        0.8022573121E-01
AX       -0.1997840584         1.686710511       -0.5107438535    
AX       -0.9312272732        -1.238102502       -0.6126508147    
AX        0.6711973234         1.063078625         1.194639360    
AX       -0.2019124365       -0.9353908228        -1.366430756    
AX        -1.204272090         1.499526039       -0.1008795956    
AX       -0.8683205510        0.8206029535       -0.8867627716    
AX        -1.257924412         1.195212538        0.9393067955    
AX         1.066444923        -1.549482871        0.1963473228    
AX        -1.184947041       -0.2218569205       -0.9746362969    
AX         1.214585785        0.4812164501       -0.2932755693    
AX       -0.5401703810       -0.3210306843         1.831516309    
AX        0.1142999210        -1.106848963         1.280003589    
AX        0.7659897138       -0.5198152389        -1.742488419    
AX         1.649023979       -0.1990350919        -1.084323914    
AX       -0.2350882025         1.427480171        0.5563496753    
AX        0.2160764865        -1.325279286       -0.4661791070    
AX        0.1462180279        0.6674028374       -0.5535971388    
AX         1.508010796       -0.5577175132       -0.3226654860E-01
AX       -0.1728515831        0.1193798125        -1.407669052    
AX        0.4726815087       -0.7585038660E-01     1.390979836    
AX        -1.715761464        0.4716939875       -0.2217208645    
AX        -1.146011996       -0.9854060346         1.170109326    
AX       -0.4135184869       -0.2978752160        0.7628079258    
AX        0.4926334401       -0.6342723467        0.3352948831    
AX        0.3166076872        0.4132369996        0.4312247470    
AX        0.6307787501       -0.3197379958       -0.7002811430    
AX       -0.3383521094       -0.3341573897       -0.3273222216    
AX       -0.7286977770        0.5431187211        0.1807634264    
    38
Energy=    -169.304465679692    
AX        0.8677470226        0.5366125916        -1.365048752    
AX         1.228970947       -0.8619915223         1.082084639    
AX       -0.4619532010        -1.285569565        0.3627146201    
AX         1.216094450        -1.211417604       -0.9015821909    
AX        -1.295732342       -0.4976205384        0.1418846393    
AX       -0.1305115560E-01     1.213582089        -1.499396273    
AX         1.324146097        0.2020978952        0.7609674350    
AX        -1.355467958        0.1181116542         1.058315083    
AX       -0.3713211803        0.6396494158         1.291719933    
AX        0.7348588216         1.379745179        0.8022573263E-01
AX       -0.1997840568         1.686710496       -0.5107438425    
AX       -0.9312273104        -1.238102495       -0.6126507884    
AX        0.6711972887         1.063078638         1.194639363    
AX       -0.2019124107       -0.9353907604        -1.366430647    
AX        -1.204272112         1.499526044       -0.1008796328    
AX       -0.8683205447        0.8206029833       -0.8867627988    
AX        -1.257924444         1.195212513        0.9393067433    
AX         1.066444943        -1.549482885        0.1963473511    
AX        -1.184947017       -0.2218569012       -0.9746362861    
AX         1.214585804        0.4812164346       -0.2932755881    
AX       -0.5401703519       -0.3210307095         1.831516311    
AX        0.1142999420        -1.106848973         1.280003590    
AX        0.7659896824       -0.5198151766        -1.742488454    
AX         1.649023969       -0.1990351135        -1.084323928    
AX       -0.2350882236         1.427480176        0.5563496775    
AX        0.2160764977        -1.325279317       -0.4661790495    
AX        0.1462180346        0.6674028230       -0.5535971406    
AX         1.508010799       -0.5577175325       -0.3226655857E-01
AX       -0.1728515995        0.1193798558        -1.407669082    
AX        0.4726815140       -0.7585038378E-01     1.390979841    
AX        -1.715761444        0.4716939963       -0.2217208768    
AX        -1.146012003       -0.9854060314         1.170109332    
AX       -0.4135184776       -0.2978752193        0.7628079221    
AX        0.4926334476       -0.6342723487        0.3352948922    
AX        0.3166076862        0.4132369883        0.4312247446    
AX        0.6307787526       -0.3197380063       -0.7002811603    
AX       -0.3383521071       -0.3341574068       -0.3273222035    
AX       -0.7286977595        0.5431187173        0.1807634059    
    38
Energy=    -169.304465679691    
AX        0.8677470288        0.5366126064        -1.365048754    
AX         1.228970968       -0.8619915192         1.082084622    
AX       -0.4619532151        -1.285569576        0.3627146384    
AX         1.216094439        -1.211417610       -0.9015822043    
AX        -1.295732349       -0.4976205396        0.1418846550    
AX       -0.1305112800E-01     1.213582124        -1.499396267    
AX         1.324146100        0.2020979089        0.7609674312    
AX        -1.355467955        0.1181116507         1.058315068    
AX       -0.3713211960        0.6396494034         1.291719912    
AX        0.7348588104         1.379745146        0.8022572664E-01
AX       -0.1997840424         1.686710495       -0.5107438362    
AX       -0.9312273405        -1.238102495       -0.6126507532    
AX        0.6711972591         1.063078650         1.194639356    
AX       -0.2019124044       -0.9353906895        -1.366430549    
AX        -1.204272114         1.499526043       -0.1008796599    
AX       -0.8683205377        0.8206030099       -0.8867628172    
AX        -1.257924475         1.195212488        0.9393066928    
AX         1.066444959        -1.549482893        0.1963473639    
AX        -1.184946996       -0.2218568867       -0.9746362794    
AX         1.214585811        0.4812164206       -0.2932756038    
AX       -0.5401703363       -0.3210307355         1.831516312    
AX        0.1142999509        -1.106848979         1.280003583    
AX        0.7659896653       -0.5198151278        -1.742488472    
AX         1.649023956       -0.1990351315        -1.084323922    
AX       -0.2350882406         1.427480174        0.5563496725    
AX        0.2160765090        -1.325279341       -0.4661790066    
AX        0.1462180361        0.6674028148       -0.5535971378    
AX         1.508010790       -0.5577175386       -0.3226655545E-01
AX       -0.1728516182        0.1193799025        -1.407669113    
AX        0.4726815256       -0.7585038461E-01     1.390979857    
AX        -1.715761425        0.4716939917       -0.2217208740    
AX        -1.146012000       -0.9854060237         1.170109347    
AX       -0.4135184688       -0.2978752329        0.7628079164    
AX        0.4926334426       -0.6342723531        0.3352948946    
AX        0.3166077000        0.4132369737        0.4312247428    
AX        0.6307787364       -0.3197380199       -0.7002811682    
AX       -0.3383521044       -0.3341574376       -0.3273221892    
AX       -0.7286977410        0.5431187112        0.1807633705    
    38
Energy=    -169.304465679690    
AX        0.8677470296        0.5366126112        -1.365048758    
AX         1.228970976       -0.8619915185         1.082084611    
AX       -0.4619532177        -1.285569578        0.3627146431    
AX         1.216094437        -1.211417610       -0.9015822079    
AX        -1.295732351       -0.4976205410        0.1418846615    
AX       -0.1305112318E-01     1.213582135        -1.499396265    
AX         1.324146098        0.2020979159        0.7609674288    
AX        -1.355467955        0.1181116520         1.058315060    
AX       -0.3713211983        0.6396493999         1.291719906    
AX        0.7348588073         1.379745133        0.8022572516E-01
AX       -0.1997840359         1.686710494       -0.5107438341    
AX       -0.9312273519        -1.238102496       -0.6126507392    
AX        0.6711972530         1.063078656         1.194639352    
AX       -0.2019124074       -0.9353906639        -1.366430521    
AX        -1.204272113         1.499526040       -0.1008796680    
AX       -0.8683205353        0.8206030173       -0.8867628215    
AX        -1.257924481         1.195212481        0.9393066775    
AX         1.066444960        -1.549482894        0.1963473640    
AX        -1.184946987       -0.2218568837       -0.9746362801    
AX         1.214585813        0.4812164176       -0.2932756105    
AX       -0.5401703394       -0.3210307428         1.831516314    
AX        0.1142999511        -1.106848980         1.280003579    
AX        0.7659896666       -0.5198151170        -1.742488473    
AX         1.649023952       -0.1990351355        -1.084323915    
AX       -0.2350882447         1.427480174        0.5563496709    
AX        0.2160765119        -1.325279344       -0.4661789957    
AX        0.1462180369        0.6674028149       -0.5535971326    
AX         1.508010785       -0.5577175387       -0.3226655317E-01
AX       -0.1728516243        0.1193799136        -1.407669123    
AX        0.4726815301       -0.7585038615E-01     1.390979868    
AX        -1.715761416        0.4716939876       -0.2217208718    
AX        -1.146011995       -0.9854060239         1.170109354    
AX       -0.4135184619       -0.2978752412        0.7628079120    
AX        0.4926334336       -0.6342723495        0.3352948944    
AX        0.3166077056        0.4132369682        0.4312247448    
AX        0.6307787296       -0.3197380250       -0.7002811712    
AX       -0.3383521042       -0.3341574503       -0.3273221817    
AX       -0.7286977347        0.5431187088        0.1807633563    
    38
Energy=    -169.304465679682    
AX        0.8677470303        0.5366126192        -1.365048759    
AX         1.228970978       -0.8619915109         1.082084615    
AX       -0.4619532179        -1.285569573        0.3627146425    
AX         1.216094434        -1.211417611       -0.9015822014    
AX        -1.295732356       -0.4976205545        0.1418846564    
AX       -0.1305113168E-01     1.213582138        -1.499396264    
AX         1.324146086        0.2020979221        0.7609674258    
AX        -1.355467975        0.1181116573         1.058315056    
AX       -0.3713211923        0.6396494134         1.291719916    
AX        0.7348588096         1.379745134        0.8022573039E-01
AX       -0.1997840251         1.686710492       -0.5107438361    
AX       -0.9312273565        -1.238102502       -0.6126507491    
AX        0.6711972620         1.063078651         1.194639348    
AX       -0.2019123948       -0.9353906505        -1.366430533    
AX        -1.204272100         1.499526039       -0.1008796679    
AX       -0.8683205473        0.8206030157       -0.8867628194    
AX        -1.257924466         1.195212484        0.9393066837    
AX         1.066444967        -1.549482900        0.1963473581    
AX        -1.184946993       -0.2218568874       -0.9746362822    
AX         1.214585805        0.4812164226       -0.2932756045    
AX       -0.5401703476       -0.3210307290         1.831516327    
AX        0.1142999484        -1.106848980         1.280003580    
AX        0.7659896865       -0.5198151284        -1.742488478    
AX         1.649023957       -0.1990351301        -1.084323911    
AX       -0.2350882408         1.427480177        0.5563496703    
AX        0.2160765076        -1.325279350       -0.4661789923    
AX        0.1462180222        0.6674028316       -0.5535971383    
AX         1.508010797       -0.5577175335       -0.3226655587E-01
AX       -0.1728516280        0.1193798853        -1.407669134    
AX        0.4726815248       -0.7585038132E-01     1.390979860    
AX        -1.715761404        0.4716940033       -0.2217208504    
AX        -1.146011991       -0.9854060354         1.170109356    
AX       -0.4135184081       -0.2978752806        0.7628078832    
AX        0.4926333692       -0.6342723136        0.3352948924    
AX        0.3166077208        0.4132369408        0.4312247749    
AX        0.6307787138       -0.3197380390       -0.7002811748    
AX       -0.3383520816       -0.3341574558       -0.3273221721    
AX       -0.7286977603        0.5431187197        0.1807633491    
    38
Energy=    -169.304465679684    
AX        0.8677470480        0.5366126231        -1.365048684    
AX         1.228971007       -0.8619914869         1.082084620    
AX       -0.4619532751        -1.285569613        0.3627146985    
AX         1.216094403        -1.211417625       -0.9015821976    
AX        -1.295732378       -0.4976205465        0.1418846604    
AX       -0.1305098551E-01     1.213582256        -1.499396238    
AX         1.324146181        0.2020979830        0.7609674742    
AX        -1.355467954        0.1181116285         1.058315029    
AX       -0.3713212574        0.6396493616         1.291719815    
AX        0.7348587882         1.379745120        0.8022568730E-01
AX       -0.1997839633         1.686710549       -0.5107438440    
AX       -0.9312273553        -1.238102546       -0.6126506942    
AX        0.6711971630         1.063078625         1.194639327    
AX       -0.2019123607       -0.9353904848        -1.366430279    
AX        -1.204272032         1.499526084       -0.1008796962    
AX       -0.8683205497        0.8206030825       -0.8867628663    
AX        -1.257924586         1.195212413        0.9393065616    
AX         1.066445092        -1.549482913        0.1963473902    
AX        -1.184947002       -0.2218568444       -0.9746362230    
AX         1.214585745        0.4812163646       -0.2932755793    
AX       -0.5401702180       -0.3210307849         1.831516303    
AX        0.1142999840        -1.106848971         1.280003549    
AX        0.7659895926       -0.5198150011        -1.742488514    
AX         1.649023900       -0.1990351861        -1.084323915    
AX       -0.2350882719         1.427480145        0.5563496340    
AX        0.2160765359        -1.325279497       -0.4661788989    
AX        0.1462179828        0.6674027878       -0.5535971380    
AX         1.508010764       -0.5577175184       -0.3226653481E-01
AX       -0.1728516525        0.1193800744        -1.407669268    
AX        0.4726815624       -0.7585037439E-01     1.390979827    
AX        -1.715761451        0.4716940048       -0.2217207858    
AX        -1.146012021       -0.9854059727         1.170109423    
AX       -0.4135184731       -0.2978752754        0.7628078838    
AX        0.4926334428       -0.6342724351        0.3352948888    
AX        0.3166077475        0.4132369125        0.4312246749    
AX        0.6307786776       -0.3197380708       -0.7002811810    
AX       -0.3383521229       -0.3341575428       -0.3273221877    
AX       -0.7286977075        0.5431186748        0.1807632773    
    38
Energy=    -169.304465679680    
AX        0.8677470598        0.5366126236        -1.365048637    
AX         1.228971013       -0.8619914678         1.082084653    
AX       -0.4619533032        -1.285569630        0.3627147192    
AX         1.216094384        -1.211417636       -0.9015821834    
AX        -1.295732389       -0.4976205502        0.1418846438    
AX       -0.1305091608E-01     1.213582309        -1.499396224    
AX         1.324146230        0.2020980067        0.7609675042    
AX        -1.355467964        0.1181116116         1.058315034    
AX       -0.3713212862        0.6396493514         1.291719781    
AX        0.7348587835         1.379745139        0.8022566962E-01
AX       -0.1997839338         1.686710577       -0.5107438540    
AX       -0.9312273393        -1.238102575       -0.6126507001    
AX        0.6711971228         1.063078595         1.194639320    
AX       -0.2019123205       -0.9353904242        -1.366430196    
AX        -1.204271988         1.499526116       -0.1008796993    
AX       -0.8683205675        0.8206031078       -0.8867628856    
AX        -1.257924633         1.195212389        0.9393065259    
AX         1.066445171        -1.549482927        0.1963474070    
AX        -1.184947031       -0.2218568269       -0.9746361889    
AX         1.214585705        0.4812163425       -0.2932755447    
AX       -0.5401701384       -0.3210307913         1.831516295    
AX        0.1143000056        -1.106848963         1.280003544    
AX        0.7659895456       -0.5198149551        -1.742488539    
AX         1.649023881       -0.1990352067        -1.084323933    
AX       -0.2350882789         1.427480130        0.5563496161    
AX        0.2160765432        -1.325279583       -0.4661788581    
AX        0.1462179460        0.6674027812       -0.5535971546    
AX         1.508010769       -0.5577175081       -0.3226653264E-01
AX       -0.1728516588        0.1193801309        -1.407669337    
AX        0.4726815692       -0.7585036151E-01     1.390979773    
AX        -1.715761485        0.4716940304       -0.2217207391    
AX        -1.146012050       -0.9854059477         1.170109448    
AX       -0.4135184722       -0.2978752851        0.7628078633    
AX        0.4926334434       -0.6342724777        0.3352948871    
AX        0.3166077645        0.4132368771        0.4312246435    
AX        0.6307786605       -0.3197380932       -0.7002811817    
AX       -0.3383521255       -0.3341575702       -0.3273222007    
AX       -0.7286977154        0.5431186623        0.1807632601    
    38
Energy=    -169.304465679677    
AX        0.8677470694        0.5366126210        -1.365048611    
AX         1.228971005       -0.8619914619         1.082084694    
AX       -0.4619533166        -1.285569636        0.3627147245    
AX         1.216094374        -1.211417650       -0.9015821789    
AX        -1.295732390       -0.4976205482        0.1418846274    
AX       -0.1305088272E-01     1.213582320        -1.499396217    
AX         1.324146258        0.2020979995        0.7609675203    
AX        -1.355467972        0.1181115981         1.058315056    
AX       -0.3713213040        0.6396493508         1.291719773    
AX        0.7348587823         1.379745165        0.8022566256E-01
AX       -0.1997839342         1.686710581       -0.5107438586    
AX       -0.9312273164        -1.238102579       -0.6126507233    
AX        0.6711971014         1.063078570         1.194639328    
AX       -0.2019122842       -0.9353904305        -1.366430185    
AX        -1.204271980         1.499526139       -0.1008796954    
AX       -0.8683205771        0.8206031139       -0.8867628905    
AX        -1.257924658         1.195212384        0.9393065241    
AX         1.066445213        -1.549482935        0.1963474273    
AX        -1.184947059       -0.2218568181       -0.9746361675    
AX         1.214585692        0.4812163333       -0.2932755208    
AX       -0.5401700796       -0.3210307917         1.831516285    
AX        0.1143000206        -1.106848959         1.280003551    
AX        0.7659895041       -0.5198149304        -1.742488560    
AX         1.649023875       -0.1990352177        -1.084323962    
AX       -0.2350882821         1.427480125        0.5563496119    
AX        0.2160765467        -1.325279623       -0.4661788405    
AX        0.1462179318        0.6674027770       -0.5535971807    
AX         1.508010782       -0.5577175111       -0.3226653887E-01
AX       -0.1728516598        0.1193801415        -1.407669355    
AX        0.4726815654       -0.7585034882E-01     1.390979725    
AX        -1.715761512        0.4716940519       -0.2217207265    
AX        -1.146012077       -0.9854059288         1.170109445    
AX       -0.4135184776       -0.2978752712        0.7628078573    
AX        0.4926334610       -0.6342725016        0.3352948908    
AX        0.3166077676        0.4132368645        0.4312246314    
AX        0.6307786677       -0.3197380990       -0.7002811794    
AX       -0.3383521240       -0.3341575581       -0.3273222172    
AX       -0.7286977302        0.5431186628        0.1807632732    
    38
Energy=    -169.304465679668    
AX        0.8677470724        0.5366126186        -1.365048593    
AX         1.228970993       -0.8619914585         1.082084742    
AX       -0.4619533306        -1.285569641        0.3627147177    
AX         1.216094370        -1.211417660       -0.9015821748    
AX        -1.295732384       -0.4976205424        0.1418846104    
AX       -0.1305086403E-01     1.213582316        -1.499396213    
AX         1.324146278        0.2020979854        0.7609675317    
AX        -1.355467978        0.1181115834         1.058315091    
AX       -0.3713213158        0.6396493524         1.291719770    
AX        0.7348587854         1.379745196        0.8022565611E-01
AX       -0.1997839397         1.686710575       -0.5107438647    
AX       -0.9312272898        -1.238102571       -0.6126507569    
AX        0.6711970817         1.063078540         1.194639331    
AX       -0.2019122326       -0.9353904563        -1.366430191    
AX        -1.204271981         1.499526165       -0.1008796845    
AX       -0.8683205812        0.8206031205       -0.8867628878    
AX        -1.257924675         1.195212384        0.9393065366    
AX         1.066445252        -1.549482943        0.1963474560    
AX        -1.184947091       -0.2218568053       -0.9746361443    
AX         1.214585693        0.4812163289       -0.2932754996    
AX       -0.5401700285       -0.3210307904         1.831516276    
AX        0.1143000296        -1.106848962         1.280003564    