    38
Energy=    -169.205253906215    
AX        0.8762549357        0.4724938069        -1.395498308    
AX         1.251545576       -0.8652830472         1.081387027    
AX       -0.2875754750        -1.262130681        0.2933005307    
AX         1.261799379        -1.212410835       -0.8462252946    
AX        -1.277801641       -0.4699364215        0.1514460552    
AX       -0.6202556684E-03     1.160704091        -1.509077381    
AX         1.313807727        0.2206888994        0.7679309627    
AX        -1.342281218        0.6780824626E-01     1.108615705    
AX       -0.3896952020        0.6477800849         1.309080626    
AX        0.7327078954         1.413996936        0.1008199434    
AX       -0.1916788963         1.673026587       -0.5177332990    
AX       -0.9451060492        -1.234461261       -0.5663712841    
AX        0.6558307079         1.101444309         1.241955061    
AX       -0.4887612872       -0.9524436727        -1.519177065    
AX        -1.199120150         1.501761685       -0.1119664728    
AX       -0.8404355628        0.7988371035       -0.8763978123    
AX        -1.297360387         1.145973445        0.9139298919    
AX        0.8624839533        -1.520884497        0.1628557854    
AX        -1.192234382       -0.2296104952       -0.9537449127    
AX         1.258232423        0.5248456621       -0.2823117718    
AX       -0.5342140161       -0.3486547700         1.822952357    
AX        0.1530415338        -1.090687358         1.271247084    
AX        0.6224724356       -0.6945380245        -1.633821580    
AX         1.688384372       -0.2036573218        -1.058053686    
AX       -0.2598620196         1.446488412        0.5671852100    
AX        0.1752786209        -1.236300488       -0.6922058831    
AX        0.1880164494        0.6699585633       -0.5499288801    
AX         1.552031483       -0.5580615878        0.3901326430E-02
AX       -0.1576020273        0.5578909210E-01    -1.355438670    
AX        0.4745929025       -0.5014147245E-01     1.406484128    
AX        -1.715806544        0.4875883639       -0.2250334922    
AX        -1.042047931        -1.061648381         1.100901847    
AX       -0.3934572669       -0.2844172075        0.7601023670    
AX        0.5379439807       -0.5364167675        0.3623628178    
AX        0.3055508140        0.4812661144        0.4608190389    
AX        0.6889914871       -0.2916090458       -0.6518955762    
AX       -0.3146657585       -0.3138532051       -0.3256077711    
AX       -0.7286406050        0.5466951373        0.1832113751    
    38
Energy=    -169.205253906215    
AX        0.8762549299        0.4724938078        -1.395498308    
AX         1.251545576       -0.8652830439         1.081387026    
AX       -0.2875754754        -1.262130692        0.2933005367    
AX         1.261799385        -1.212410833       -0.8462252952    
AX        -1.277801648       -0.4699364074        0.1514460556    
AX       -0.6202506941E-03     1.160704097        -1.509077386    
AX         1.313807728        0.2206889056        0.7679309634    
AX        -1.342281218        0.6780823544E-01     1.108615717    
AX       -0.3896952067        0.6477800810         1.309080623    
AX        0.7327078968         1.413996934        0.1008199536    
AX       -0.1916788859         1.673026594       -0.5177333037    
AX       -0.9451060500        -1.234461257       -0.5663712730    
AX        0.6558306992         1.101444306         1.241955056    
AX       -0.4887612884       -0.9524436695        -1.519177051    
AX        -1.199120136         1.501761689       -0.1119664738    
AX       -0.8404355658        0.7988371128       -0.8763978224    
AX        -1.297360398         1.145973427        0.9139298777    
AX        0.8624839659        -1.520884499        0.1628557929    
AX        -1.192234385       -0.2296104887       -0.9537449055    
AX         1.258232424        0.5248456652       -0.2823117768    
AX       -0.5342140134       -0.3486547771         1.822952360    
AX        0.1530415370        -1.090687360         1.271247084    
AX        0.6224724301       -0.6945380303        -1.633821582    
AX         1.688384371       -0.2036573175        -1.058053691    
AX       -0.2598620220         1.446488408        0.5671852081    
AX        0.1752786265        -1.236300494       -0.6922058730    
AX        0.1880164455        0.6699585646       -0.5499288809    
AX         1.552031482       -0.5580615836        0.3901327928E-02
AX       -0.1576020325        0.5578909638E-01    -1.355438672    
AX        0.4745929005       -0.5014147255E-01     1.406484124    
AX        -1.715806543        0.4875883830       -0.2250334882    
AX        -1.042047934        -1.061648382         1.100901843    
AX       -0.3934572748       -0.2844172110        0.7601023690    
AX        0.5379439825       -0.5364167745        0.3623628105    
AX        0.3055508176        0.4812661080        0.4608190336    
AX        0.6889914880       -0.2916090436       -0.6518955728    
AX       -0.3146657573       -0.3138532132       -0.3256077726    
AX       -0.7286405998        0.5466951344        0.1832113637    
    38
Energy=    -169.205253906213    
AX        0.8762549313        0.4724938077        -1.395498307    
AX         1.251545579       -0.8652830458         1.081387028    
AX       -0.2875754711        -1.262130692        0.2933005351    
AX         1.261799385        -1.212410834       -0.8462252975    
AX        -1.277801646       -0.4699364054        0.1514460574    
AX       -0.6202498034E-03     1.160704098        -1.509077387    
AX         1.313807729        0.2206889019        0.7679309637    
AX        -1.342281213        0.6780823250E-01     1.108615716    
AX       -0.3896952074        0.6477800812         1.309080624    
AX        0.7327078940         1.413996933        0.1008199489    
AX       -0.1916788892         1.673026594       -0.5177333040    
AX       -0.9451060492        -1.234461257       -0.5663712708    
AX        0.6558307045         1.101444307         1.241955059    
AX       -0.4887612919       -0.9524436681        -1.519177052    
AX        -1.199120139         1.501761689       -0.1119664749    
AX       -0.8404355698        0.7988371145       -0.8763978247    
AX        -1.297360397         1.145973426        0.9139298761    
AX        0.8624839634        -1.520884495        0.1628557903    
AX        -1.192234385       -0.2296104884       -0.9537449048    
AX         1.258232420        0.5248456622       -0.2823117749    
AX       -0.5342140145       -0.3486547771         1.822952355    
AX        0.1530415380        -1.090687359         1.271247087    
AX        0.6224724267       -0.6945380282        -1.633821585    
AX         1.688384375       -0.2036573166        -1.058053686    
AX       -0.2598620218         1.446488408        0.5671852072    
AX        0.1752786250        -1.236300495       -0.6922058773    
AX        0.1880164486        0.6699585604       -0.5499288650    
AX         1.552031479       -0.5580615877        0.3901329476E-02
AX       -0.1576020364        0.5578909390E-01    -1.355438673    
AX        0.4745929025       -0.5014147158E-01     1.406484130    
AX        -1.715806544        0.4875883837       -0.2250334910    
AX        -1.042047931        -1.061648379         1.100901838    
AX       -0.3934572959       -0.2844172113        0.7601023795    
AX        0.5379440023       -0.5364167766        0.3623627993    
AX        0.3055508192        0.4812661197        0.4608190208    
AX        0.6889914845       -0.2916090444       -0.6518955545    
AX       -0.3146657528       -0.3138532151       -0.3256077756    
AX       -0.7286406013        0.5466951360        0.1832113598    
    38
Energy=    -169.205253906214    
AX        0.8762549306        0.4724938214        -1.395498332    
AX         1.251545573       -0.8652830121         1.081387009    
AX       -0.2875754926        -1.262130740        0.2933005559    
AX         1.261799398        -1.212410802       -0.8462252773    
AX        -1.277801686       -0.4699363580        0.1514460719    
AX       -0.6202487669E-03     1.160704108        -1.509077391    
AX         1.313807725        0.2206889394        0.7679309654    
AX        -1.342281226        0.6780818055E-01     1.108615792    
AX       -0.3896952462        0.6477800627         1.309080595    
AX        0.7327079184         1.413996916        0.1008199868    
AX       -0.1916788069         1.673026632       -0.5177333124    
AX       -0.9451060851        -1.234461234       -0.5663712300    
AX        0.6558306292         1.101444305         1.241955055    
AX       -0.4887612690       -0.9524436650        -1.519176966    
AX        -1.199120060         1.501761734       -0.1119664889    
AX       -0.8404355531        0.7988371412       -0.8763978294    
AX        -1.297360465         1.145973345        0.9139297961    
AX        0.8624840496        -1.520884521        0.1628558219    
AX        -1.192234407       -0.2296104471       -0.9537448769    
AX         1.258232426        0.5248456667       -0.2823117982    
AX       -0.5342139937       -0.3486548027         1.822952359    
AX        0.1530415442        -1.090687377         1.271247072    
AX        0.6224724159       -0.6945380713        -1.633821590    
AX         1.688384366       -0.2036573060        -1.058053713    
AX       -0.2598620285         1.446488389        0.5671851915    
AX        0.1752786535        -1.236300522       -0.6922058105    
AX        0.1880164431        0.6699585710       -0.5499288955    
AX         1.552031486       -0.5580615340        0.3901330401E-02
AX       -0.1576020283        0.5578911542E-01    -1.355438689    
AX        0.4745928803       -0.5014148312E-01     1.406484091    
AX        -1.715806542        0.4875884820       -0.2250334446    
AX        -1.042047928        -1.061648403         1.100901864    
AX       -0.3934572835       -0.2844172301        0.7601023504    
AX        0.5379439605       -0.5364168112        0.3623627727    
AX        0.3055508222        0.4812660727        0.4608190242    
AX        0.6889914746       -0.2916090321       -0.6518956047    
AX       -0.3146657695       -0.3138532449       -0.3256077901    
AX       -0.7286405760        0.5466951159        0.1832113363    
    38
Energy=    -169.205253906213    
AX        0.8762549518        0.4724938347        -1.395498355    
AX         1.251545572       -0.8652829899         1.081386994    
AX       -0.2875755080        -1.262130752        0.2933005557    
AX         1.261799396        -1.212410778       -0.8462252587    
AX        -1.277801701       -0.4699363519        0.1514460890    
AX       -0.6202622597E-03     1.160704106        -1.509077384    
AX         1.313807718        0.2206889528        0.7679309644    
AX        -1.342281232        0.6780815635E-01     1.108615829    
AX       -0.3896952741        0.6477800577         1.309080576    
AX        0.7327079354         1.413996900        0.1008199858    
AX       -0.1916787619         1.673026646       -0.5177333076    
AX       -0.9451061166        -1.234461226       -0.5663712212    
AX        0.6558305883         1.101444312         1.241955073    
AX       -0.4887612475       -0.9524436681        -1.519176927    
AX        -1.199120027         1.501761764       -0.1119665017    
AX       -0.8404355339        0.7988371390       -0.8763978046    
AX        -1.297360500         1.145973321        0.9139297572    
AX        0.8624840900        -1.520884531        0.1628558290    
AX        -1.192234422       -0.2296104277       -0.9537448708    
AX         1.258232425        0.5248456539       -0.2823118050    
AX       -0.5342139828       -0.3486548052         1.822952348    
AX        0.1530415446        -1.090687388         1.271247062    
AX        0.6224724167       -0.6945380918        -1.633821599    
AX         1.688384366       -0.2036573078        -1.058053717    
AX       -0.2598620261         1.446488382        0.5671851800    
AX        0.1752786611        -1.236300535       -0.6922057819    
AX        0.1880164594        0.6699585705       -0.5499288913    
AX         1.552031485       -0.5580615011        0.3901328447E-02
AX       -0.1576020112        0.5578911919E-01    -1.355438703    
AX        0.4745928686       -0.5014149194E-01     1.406484074    
AX        -1.715806544        0.4875885209       -0.2250334147    
AX        -1.042047907        -1.061648421         1.100901894    
AX       -0.3934572882       -0.2844172446        0.7601023377    
AX        0.5379439488       -0.5364168277        0.3623627445    
AX        0.3055508184        0.4812660699        0.4608190176    
AX        0.6889914586       -0.2916090254       -0.6518956323    
AX       -0.3146657844       -0.3138532506       -0.3256078056    
AX       -0.7286405739        0.5466951096        0.1832113415    
    38
Energy=    -169.205253906212    
AX        0.8762549615        0.4724938390        -1.395498361    
AX         1.251545571       -0.8652829846         1.081386988    
AX       -0.2875755133        -1.262130749        0.2933005521    
AX         1.261799392        -1.212410773       -0.8462252529    
AX        -1.277801701       -0.4699363585        0.1514460940    
AX       -0.6202695886E-03     1.160704103        -1.509077380    
AX         1.313807715        0.2206889539        0.7679309631    
AX        -1.342281235        0.6780815613E-01     1.108615833    
AX       -0.3896952806        0.6477800591         1.309080573    
AX        0.7327079410         1.413996896        0.1008199795    
AX       -0.1916787554         1.673026645       -0.5177333042    
AX       -0.9451061242        -1.234461227       -0.5663712261    
AX        0.6558305815         1.101444314         1.241955082    
AX       -0.4887612401       -0.9524436698        -1.519176925    
AX        -1.199120025         1.501761768       -0.1119665045    
AX       -0.8404355267        0.7988371309       -0.8763977912    
AX        -1.297360505         1.145973326        0.9139297550    
AX        0.8624840927        -1.520884532        0.1628558291    
AX        -1.192234426       -0.2296104277       -0.9537448733    
AX         1.258232427        0.5248456483       -0.2823118053    
AX       -0.5342139819       -0.3486548016         1.822952344    
AX        0.1530415448        -1.090687391         1.271247057    
AX        0.6224724198       -0.6945380930        -1.633821602    
AX         1.688384368       -0.2036573114        -1.058053715    
AX       -0.2598620231         1.446488382        0.5671851775    
AX        0.1752786602        -1.236300534       -0.6922057793    
AX        0.1880164672        0.6699585700       -0.5499288891    
AX         1.552031485       -0.5580614957        0.3901327637E-02
AX       -0.1576020034        0.5578911852E-01    -1.355438705    
AX        0.4745928657       -0.5014149356E-01     1.406484071    
AX        -1.715806545        0.4875885208       -0.2250334090    
AX        -1.042047898        -1.061648425         1.100901907    
AX       -0.3934572850       -0.2844172466        0.7601023337    
AX        0.5379439435       -0.5364168284        0.3623627403    
AX        0.3055508146        0.4812660734        0.4608190183    
AX        0.6889914535       -0.2916090252       -0.6518956436    
AX       -0.3146657893       -0.3138532466       -0.3256078095    
AX       -0.7286405765        0.5466951096        0.1832113511    
    38
Energy=    -169.205253906210    
AX        0.8762549912        0.4724938490        -1.395498361    
AX         1.251545568       -0.8652829822         1.081386972    
AX       -0.2875755294        -1.262130710        0.2933005331    
AX         1.261799372        -1.212410772       -0.8462252430    
AX        -1.277801684       -0.4699364041        0.1514461012    
AX       -0.6202951352E-03     1.160704087        -1.509077366    
AX         1.313807710        0.2206889452        0.7679309587    
AX        -1.342281243        0.6780818733E-01     1.108615811    
AX       -0.3896952882        0.6477800767         1.309080579    
AX        0.7327079532         1.413996888        0.1008199488    
AX       -0.1916787760         1.673026627       -0.5177332932    
AX       -0.9451061227        -1.234461241       -0.5663712685    
AX        0.6558305926         1.101444319         1.241955110    
AX       -0.4887612237       -0.9524436719        -1.519176968    
AX        -1.199120053         1.501761748       -0.1119665035    
AX       -0.8404355115        0.7988370818       -0.8763977461    
AX        -1.297360496         1.145973386        0.9139297944    
AX        0.8624840540        -1.520884523        0.1628558241    
AX        -1.192234430       -0.2296104577       -0.9537448933    
AX         1.258232444        0.5248456303       -0.2823118025    
AX       -0.5342139935       -0.3486547788         1.822952340    
AX        0.1530415470        -1.090687385         1.271247034    
AX        0.6224724348       -0.6945380746        -1.633821611    
AX         1.688384376       -0.2036573312        -1.058053701    
AX       -0.2598620078         1.446488392        0.5671851799    
AX        0.1752786451        -1.236300520       -0.6922058007    
AX        0.1880164968        0.6699585682       -0.5499288650    
AX         1.552031486       -0.5580615096        0.3901328769E-02
AX       -0.1576019837        0.5578910842E-01    -1.355438707    
AX        0.4745928610       -0.5014149186E-01     1.406484077    
AX        -1.715806544        0.4875884718       -0.2250334124    
AX        -1.042047868        -1.061648429         1.100901944    
AX       -0.3934572709       -0.2844172483        0.7601023329    
AX        0.5379439354       -0.5364168229        0.3623627484    
AX        0.3055507991        0.4812661135        0.4608190157    
AX        0.6889914526       -0.2916090297       -0.6518956805    
AX       -0.3146658040       -0.3138532162       -0.3256078104    
AX       -0.7286405941        0.5466951203        0.1832113998    
    38
Energy=    -169.205253906210    
AX        0.8762549371        0.4724938258        -1.395498375    
AX         1.251545568       -0.8652829725         1.081387010    
AX       -0.2875754681        -1.262130801        0.2933005780    
AX         1.261799434        -1.212410767       -0.8462252637    
AX        -1.277801736       -0.4699362731        0.1514460977    
AX       -0.6202207589E-03     1.160704126        -1.509077395    
AX         1.313807717        0.2206889634        0.7679309845    
AX        -1.342281219        0.6780805808E-01     1.108615918    
AX       -0.3896952927        0.6477800172         1.309080530    
AX        0.7327079209         1.413996902        0.1008200157    
AX       -0.1916786688         1.673026668       -0.5177333186    
AX       -0.9451061728        -1.234461196       -0.5663711294    
AX        0.6558305217         1.101444338         1.241955077    
AX       -0.4887612845       -0.9524436725        -1.519176809    
AX        -1.199119941         1.501761865       -0.1119665369    
AX       -0.8404355426        0.7988372310       -0.8763978572    
AX        -1.297360552         1.145973173        0.9139296109    
AX        0.8624841976        -1.520884528        0.1628558053    
AX        -1.192234441       -0.2296103479       -0.9537448317    
AX         1.258232370        0.5248456480       -0.2823117768    
AX       -0.5342139428       -0.3486548327         1.822952328    
AX        0.1530415371        -1.090687399         1.271247099    
AX        0.6224723804       -0.6945381491        -1.633821582    
AX         1.688384364       -0.2036572592        -1.058053714    
AX       -0.2598620537         1.446488366        0.5671851720    
AX        0.1752786848        -1.236300586       -0.6922057469    
AX        0.1880164388        0.6699585574       -0.5499288997    
AX         1.552031473       -0.5580614403        0.3901301528E-02
AX       -0.1576020346        0.5578912898E-01    -1.355438705    
AX        0.4745928811       -0.5014150496E-01     1.406484077    
AX        -1.715806559        0.4875886408       -0.2250333561    
AX        -1.042047913        -1.061648454         1.100901853    
AX       -0.3934572836       -0.2844172682        0.7601023047    
AX        0.5379439443       -0.5364168364        0.3623627278    
AX        0.3055508321        0.4812660371        0.4608190176    
AX        0.6889914386       -0.2916090382       -0.6518956319    
AX       -0.3146657810       -0.3138533122       -0.3256078230    
AX       -0.7286405326        0.5466950933        0.1832112446    
    38
Energy=    -169.205253906207    
AX        0.8762548952        0.4724938025        -1.395498380    
AX         1.251545562       -0.8652829668         1.081387032    
AX       -0.2875754205        -1.262130854        0.2933006141    
AX         1.261799477        -1.212410766       -0.8462252780    
AX        -1.277801766       -0.4699361852        0.1514460895    
AX       -0.6201671934E-03     1.160704156        -1.509077419    
AX         1.313807731        0.2206889725        0.7679310018    
AX        -1.342281208        0.6780797400E-01     1.108615987    
AX       -0.3896952935        0.6477799778         1.309080500    
AX        0.7327078928         1.413996911        0.1008200679    
AX       -0.1916786021         1.673026693       -0.5177333351    
AX       -0.9451061973        -1.234461168       -0.5663710380    
AX        0.6558304806         1.101444355         1.241955055    
AX       -0.4887613317       -0.9524436732        -1.519176711    
AX        -1.199119867         1.501761938       -0.1119665579    
AX       -0.8404355725        0.7988373364       -0.8763979457    
AX        -1.297360587         1.145973030        0.9139294913    
AX        0.8624842858        -1.520884523        0.1628557914    
AX        -1.192234442       -0.2296102781       -0.9537447865    
AX         1.258232321        0.5248456698       -0.2823117556    
AX       -0.5342139132       -0.3486548704         1.822952322    
AX        0.1530415304        -1.090687400         1.271247140    
AX        0.6224723360       -0.6945381938        -1.633821544    
AX         1.688384351       -0.2036572098        -1.058053723    
AX       -0.2598620861         1.446488346        0.5671851727    
AX        0.1752787149        -1.236300632       -0.6922057184    
AX        0.1880164003        0.6699585503       -0.5499288958    
AX         1.552031468       -0.5580613988        0.3901281715E-02
AX       -0.1576020768        0.5578913795E-01    -1.355438702    
AX        0.4745928984       -0.5014151576E-01     1.406484086    
AX        -1.715806569        0.4875887520       -0.2250333202    
AX        -1.042047953        -1.061648464         1.100901786    
AX       -0.3934572805       -0.2844172893        0.7601022829    
AX        0.5379439523       -0.5364168787        0.3623627487    
AX        0.3055508431        0.4812660185        0.4608189951    
AX        0.6889914399       -0.2916090518       -0.6518956402    
AX       -0.3146657697       -0.3138533791       -0.3256078276    
AX       -0.7286404758        0.5466950776        0.1832111343    
    38
Energy=    -169.205253906204    
AX        0.8762548365        0.4724937788        -1.395498381    
AX         1.251545562       -0.8652829696         1.081387055    
AX       -0.2875753939        -1.262130923        0.2933006596    
AX         1.261799513        -1.212410756       -0.8462252947    
AX        -1.277801799       -0.4699361002        0.1514460724    
AX       -0.6201233091E-03     1.160704187        -1.509077448    
AX         1.313807750        0.2206889923        0.7679310090    
AX        -1.342281206        0.6780792418E-01     1.108616032    
AX       -0.3896952840        0.6477799538         1.309080498    
AX        0.7327078700         1.413996920        0.1008201384    
AX       -0.1916785638         1.673026736       -0.5177333545    
AX       -0.9451061902        -1.234461144       -0.5663709655    
AX        0.6558304597         1.101444347         1.241954996    
AX       -0.4887613554       -0.9524436673        -1.519176637    
AX        -1.199119813         1.501761960       -0.1119665546    
AX       -0.8404356042        0.7988374263       -0.8763980352    
AX        -1.297360607         1.145972920        0.9139294277    
AX        0.8624843543        -1.520884539        0.1628558103    
AX        -1.192234429       -0.2296102261       -0.9537447422    
AX         1.258232296        0.5248457184       -0.2823117691    
AX       -0.5342138976       -0.3486549196         1.822952336    
AX        0.1530415250        -1.090687405         1.271247171    
AX        0.6224723019       -0.6945382265        -1.633821515    
AX         1.688384327       -0.2036571800        -1.058053760    
AX       -0.2598621144         1.446488321        0.5671851691    
AX        0.1752787509        -1.236300657       -0.6922056757    
AX        0.1880163449        0.6699585582       -0.5499289093    
AX         1.552031478       -0.5580613755        0.3901288300E-02
AX       -0.1576021137        0.5578915244E-01    -1.355438708    
AX        0.4745928992       -0.5014152317E-01     1.406484069    
AX        -1.715806561        0.4875888490       -0.2250333151    
AX        -1.042048014        -1.061648448         1.100901721    
AX       -0.3934572939       -0.2844173026        0.7601022800    
AX        0.5379439594       -0.5364169325        0.3623627640    
AX        0.3055508635        0.4812659750        0.4608189672    
AX        0.6889914554       -0.2916090448       -0.6518956200    
AX       -0.3146657522       -0.3138534401       -0.3256078216    
AX       -0.7286404295        0.5466950605        0.1832110438    
    38
Energy=    -169.205253906202    
AX        0.8762548179        0.4724937759        -1.395498388    
AX         1.251545554       -0.8652829670         1.081387054    
AX       -0.2875754096        -1.262130946        0.2933006753    
AX         1.261799519        -1.212410752       -0.8462252924    
AX        -1.277801802       -0.4699360926        0.1514460643    
AX       -0.6201194613E-03     1.160704194        -1.509077460    
AX         1.313807752        0.2206890086        0.7679310048    
AX        -1.342281208        0.6780792940E-01     1.108616023    
AX       -0.3896952735        0.6477799516         1.309080508    
AX        0.7327078673         1.413996917        0.1008201751    
AX       -0.1916785587         1.673026753       -0.5177333565    
AX       -0.9451061816        -1.234461140       -0.5663709641    
AX        0.6558304507         1.101444337         1.241954962    
AX       -0.4887613418       -0.9524436685        -1.519176629    
AX        -1.199119804         1.501761948       -0.1119665415    
AX       -0.8404356049        0.7988374370       -0.8763980462    
AX        -1.297360601         1.145972915        0.9139294416    
AX        0.8624843636        -1.520884552        0.1628558327    
AX        -1.192234419       -0.2296102200       -0.9537447394    
AX         1.258232299        0.5248457449       -0.2823117877    
AX       -0.5342138915       -0.3486549315         1.822952349    
AX        0.1530415183        -1.090687413         1.271247174    
AX        0.6224723123       -0.6945382380        -1.633821507    
AX         1.688384309       -0.2036571819        -1.058053793    
AX       -0.2598621201         1.446488315        0.5671851695    
AX        0.1752787623        -1.236300647       -0.6922056496    
AX        0.1880163334        0.6699585706       -0.5499289225    
AX         1.552031481       -0.5580613616        0.3901292710E-02
AX       -0.1576021106        0.5578915367E-01    -1.355438713    
AX        0.4745928966       -0.5014152984E-01     1.406484055    
AX        -1.715806553        0.4875888550       -0.2250333178    
AX        -1.042048043        -1.061648430         1.100901717    
AX       -0.3934573037       -0.2844173093        0.7601022907    
AX        0.5379439561       -0.5364169657        0.3623627624    
AX        0.3055508661        0.4812659569        0.4608189543    
AX        0.6889914641       -0.2916090313       -0.6518956199    
AX       -0.3146657498       -0.3138534421       -0.3256078175    
AX       -0.7286404267        0.5466950570        0.1832110412    
    38
Energy=    -169.205253906189    
AX        0.8762548115        0.4724937802        -1.395498405    
AX         1.251545537       -0.8652829527         1.081387030    
AX       -0.2875754481        -1.262130948        0.2933006868    
AX         1.261799507        -1.212410742       -0.8462252703    
AX        -1.277801790       -0.4699361246        0.1514460603    
AX       -0.6201419371E-03     1.160704190        -1.509077454    
AX         1.313807742        0.2206890276        0.7679309811    
AX        -1.342281216        0.6780796099E-01     1.108615984    
AX       -0.3896952584        0.6477799606         1.309080523    
AX        0.7327078763         1.413996901        0.1008202052    
AX       -0.1916785661         1.673026761       -0.5177333413    
AX       -0.9451061695        -1.234461149       -0.5663710041    
AX        0.6558304400         1.101444310         1.241954921    
AX       -0.4887612976       -0.9524436821        -1.519176651    
AX        -1.199119814         1.501761916       -0.1119665179    
AX       -0.8404355837        0.7988374130       -0.8763980185    
AX        -1.297360577         1.145972961        0.9139294961    
AX        0.8624843433        -1.520884564        0.1628558708    
AX        -1.192234405       -0.2296102332       -0.9537447528    
AX         1.258232325        0.5248457800       -0.2823118156    
AX       -0.5342138949       -0.3486549309         1.822952347    
AX        0.1530415089        -1.090687424         1.271247164    