    38
Energy=    -169.304465679699    
AX        0.8680674784        0.5364406858        -1.364912435    
AX         1.228668064       -0.8620689866         1.082366661    
AX       -0.4621656773        -1.285498112        0.3626969001    
AX         1.216131812        -1.211602575       -0.9012830814    
AX        -1.295814856       -0.4974685153        0.1416644713    
AX       -0.1262972251E-01     1.213500759        -1.499465585    
AX         1.324023392        0.2019923214        0.7612094444    
AX        -1.355656923        0.1183210472         1.058049373    
AX       -0.3714964972        0.6397618742         1.291613649    
AX        0.7349972939         1.379667814        0.8029014524E-01
AX       -0.1994985059         1.686704777       -0.5108749260    
AX       -0.9312481531        -1.238032398       -0.6127607633    
AX        0.6710875882         1.063069608         1.194708954    
AX       -0.2017558592       -0.9354438151        -1.366418422    
AX        -1.204085561         1.499654734       -0.1011920016    
AX       -0.8680597533        0.8206508443       -0.8869735891    
AX        -1.257970467         1.195404516        0.9390008580    
AX         1.066234566        -1.549590970        0.1966360475    
AX        -1.184785940       -0.2217784515       -0.9748502507    
AX         1.214695498        0.4810650547       -0.2930699053    
AX       -0.5405559773       -0.3208696202         1.831430680    
AX        0.1139318859        -1.106791303         1.280086292    
AX        0.7662646658       -0.5199966113        -1.742313211    
AX         1.649208947       -0.1992784127        -1.083997704    
AX       -0.2350352937         1.427537065        0.5562261541    
AX        0.2160177541        -1.325328862       -0.4660652885    
AX        0.1463981854        0.6673562242       -0.5536058564    
AX         1.507954693       -0.5578872701       -0.3194756254E-01
AX       -0.1725694772        0.1193213580        -1.407708260    
AX        0.4724073724       -0.7582660384E-01     1.391074226    
AX        -1.715666476        0.4718729961       -0.2220739776    
AX        -1.146345202       -0.9852139183         1.169944568    
AX       -0.4136973777       -0.2977871651        0.7627452147    
AX        0.4924985258       -0.6343089880        0.3354238252    
AX        0.3165715587        0.4132253074        0.4312624144    
AX        0.6308769236       -0.3198467123       -0.7001428581    
AX       -0.3383269066       -0.3341376277       -0.3273685960    
AX       -0.7286715788        0.5432099328        0.1805943945    
    38
Energy=    -169.304465679699    
AX        0.8680674771        0.5364406837        -1.364912436    
AX         1.228668065       -0.8620689828         1.082366663    
AX       -0.4621656760        -1.285498115        0.3626969023    
AX         1.216131811        -1.211602579       -0.9012830815    
AX        -1.295814853       -0.4974685148        0.1416644703    
AX       -0.1262972256E-01     1.213500770        -1.499465580    
AX         1.324023387        0.2019923181        0.7612094404    
AX        -1.355656926        0.1183210511         1.058049372    
AX       -0.3714964954        0.6397618760         1.291613654    
AX        0.7349972935         1.379667813        0.8029014382E-01
AX       -0.1994985127         1.686704774       -0.5108749238    
AX       -0.9312481480        -1.238032399       -0.6127607650    
AX        0.6710875865         1.063069606         1.194708955    
AX       -0.2017558479       -0.9354438105        -1.366418418    
AX        -1.204085562         1.499654734       -0.1011919950    
AX       -0.8680597541        0.8206508442       -0.8869735914    
AX        -1.257970461         1.195404520        0.9390008674    
AX         1.066234568        -1.549590964        0.1966360485    
AX        -1.184785939       -0.2217784534       -0.9748502522    
AX         1.214695492        0.4810650505       -0.2930699079    
AX       -0.5405559712       -0.3208696185         1.831430682    
AX        0.1139318900        -1.106791306         1.280086294    
AX        0.7662646681       -0.5199966131        -1.742313217    
AX         1.649208944       -0.1992784192        -1.083997704    
AX       -0.2350352927         1.427537063        0.5562261545    
AX        0.2160177540        -1.325328868       -0.4660652850    
AX        0.1463981818        0.6673562225       -0.5536058599    
AX         1.507954692       -0.5578872694       -0.3194756295E-01
AX       -0.1725694725        0.1193213632        -1.407708268    
AX        0.4724073715       -0.7582660389E-01     1.391074226    
AX        -1.715666475        0.4718729951       -0.2220739880    
AX        -1.146345208       -0.9852139136         1.169944564    
AX       -0.4136973762       -0.2977871604        0.7627452144    
AX        0.4924985227       -0.6343089853        0.3354238264    
AX        0.3165715528        0.4132253057        0.4312624173    
AX        0.6308769211       -0.3198467185       -0.7001428629    
AX       -0.3383269067       -0.3341376273       -0.3273685946    
AX       -0.7286715795        0.5432099314        0.1805943961    
    38
Energy=    -169.304465679695    
AX        0.8680674775        0.5364406916        -1.364912428    
AX         1.228668063       -0.8620689826         1.082366668    
AX       -0.4621656806        -1.285498109        0.3626968944    
AX         1.216131804        -1.211602568       -0.9012830847    
AX        -1.295814852       -0.4974685168        0.1416644712    
AX       -0.1262973377E-01     1.213500754        -1.499465592    
AX         1.324023389        0.2019923201        0.7612094496    
AX        -1.355656933        0.1183210410         1.058049379    
AX       -0.3714964982        0.6397618770         1.291613638    
AX        0.7349973015         1.379667823        0.8029015185E-01
AX       -0.1994984978         1.686704781       -0.5108749310    
AX       -0.9312481604        -1.238032405       -0.6127607678    
AX        0.6710875745         1.063069616         1.194708949    
AX       -0.2017558623       -0.9354438226        -1.366418422    
AX        -1.204085559         1.499654744       -0.1011920134    
AX       -0.8680597375        0.8206508405       -0.8869735883    
AX        -1.257970473         1.195404502        0.9390008385    
AX         1.066234571        -1.549590975        0.1966360474    
AX        -1.184785951       -0.2217784476       -0.9748502353    
AX         1.214695510        0.4810650566       -0.2930699036    
AX       -0.5405559713       -0.3208696181         1.831430686    
AX        0.1139318928        -1.106791315         1.280086284    
AX        0.7662646568       -0.5199965987        -1.742313201    
AX         1.649208938       -0.1992784158        -1.083997702    
AX       -0.2350352961         1.427537072        0.5562261527    
AX        0.2160177527        -1.325328874       -0.4660652946    
AX        0.1463981803        0.6673562396       -0.5536058979    
AX         1.507954693       -0.5578872696       -0.3194755943E-01
AX       -0.1725694650        0.1193213609        -1.407708249    
AX        0.4724073672       -0.7582660300E-01     1.391074220    
AX        -1.715666473        0.4718730090       -0.2220739632    
AX        -1.146345195       -0.9852139322         1.169944580    
AX       -0.4136973490       -0.2977871538        0.7627451854    
AX        0.4924984994       -0.6343089806        0.3354238373    
AX        0.3165715585        0.4132252714        0.4312624495    
AX        0.6308769435       -0.3198467062       -0.7001428598    
AX       -0.3383269274       -0.3341376317       -0.3273685858    
AX       -0.7286715569        0.5432099249        0.1805943967    
    38
Energy=    -169.304465679698    
AX        0.8680674671        0.5364406576        -1.364912455    
AX         1.228668079       -0.8620689858         1.082366659    
AX       -0.4621656631        -1.285498124        0.3626969337    
AX         1.216131825        -1.211602618       -0.9012830751    
AX        -1.295814853       -0.4974685030        0.1416644535    
AX       -0.1262968384E-01     1.213500818        -1.499465522    
AX         1.324023372        0.2019923062        0.7612094061    
AX        -1.355656919        0.1183210993         1.058049354    
AX       -0.3714964785        0.6397618754         1.291613707    
AX        0.7349972765         1.379667796        0.8029011601E-01
AX       -0.1994985678         1.686704737       -0.5108748868    
AX       -0.9312481016        -1.238032387       -0.6127607522    
AX        0.6710876419         1.063069569         1.194708978    
AX       -0.2017557942       -0.9354437717        -1.366418393    
AX        -1.204085594         1.499654698       -0.1011919335    
AX       -0.8680597900        0.8206508561       -0.8869736067    
AX        -1.257970416         1.195404582        0.9390009727    
AX         1.066234563        -1.549590942        0.1966360621    
AX        -1.184785879       -0.2217784796       -0.9748503133    
AX         1.214695437        0.4810650189       -0.2930699299    
AX       -0.5405559892       -0.3208696263         1.831430692    
AX        0.1139318960        -1.106791272         1.280086316    
AX        0.7662647108       -0.5199966592        -1.742313266    
AX         1.649208949       -0.1992784333        -1.083997714    
AX       -0.2350352807         1.427537032        0.5562261777    
AX        0.2160177579        -1.325328859       -0.4660652511    
AX        0.1463981465        0.6673561811       -0.5536058570    
AX         1.507954705       -0.5578872702       -0.3194759450E-01
AX       -0.1725694923        0.1193213977        -1.407708320    
AX        0.4724073819       -0.7582659160E-01     1.391074228    
AX        -1.715666492        0.4718729441       -0.2220740966    
AX        -1.146345274       -0.9852138631         1.169944514    
AX       -0.4136973774       -0.2977871484        0.7627452316    
AX        0.4924985452       -0.6343089354        0.3354238223    
AX        0.3165715150        0.4132253403        0.4312624285    
AX        0.6308768967       -0.3198467586       -0.7001429160    
AX       -0.3383268867       -0.3341376094       -0.3273685780    
AX       -0.7286716336        0.5432099291        0.1805944104    
    38
Energy=    -169.304465679696    
AX        0.8680674599        0.5364406394        -1.364912469    
AX         1.228668088       -0.8620689992         1.082366648    
AX       -0.4621656570        -1.285498118        0.3626969553    
AX         1.216131837        -1.211602638       -0.9012830698    
AX        -1.295814858       -0.4974684939        0.1416644410    
AX       -0.1262964968E-01     1.213500823        -1.499465489    
AX         1.324023372        0.2019923066        0.7612093882    
AX        -1.355656909        0.1183211316         1.058049339    
AX       -0.3714964689        0.6397618680         1.291613734    
AX        0.7349972643         1.379667789        0.8029009493E-01
AX       -0.1994985938         1.686704714       -0.5108748605    
AX       -0.9312480780        -1.238032373       -0.6127607345    
AX        0.6710876928         1.063069545         1.194708992    
AX       -0.2017557826       -0.9354437503        -1.366418379    
AX        -1.204085623         1.499654666       -0.1011919015    
AX       -0.8680598125        0.8206508684       -0.8869736119    
AX        -1.257970393         1.195404626        0.9390010363    
AX         1.066234557        -1.549590944        0.1966360719    
AX        -1.184785831       -0.2217784945       -0.9748503617    
AX         1.214695409        0.4810650024       -0.2930699431    
AX       -0.5405560236       -0.3208696407         1.831430698    
AX        0.1139318900        -1.106791238         1.280086328    
AX        0.7662647428       -0.5199966903        -1.742313289    
AX         1.649208962       -0.1992784255        -1.083997723    
AX       -0.2350352737         1.427537009        0.5562261989    
AX        0.2160177626        -1.325328838       -0.4660652336    
AX        0.1463981228        0.6673561537       -0.5536058591    
AX         1.507954720       -0.5578872746       -0.3194762034E-01
AX       -0.1725695231        0.1193214158        -1.407708342    
AX        0.4724073940       -0.7582658067E-01     1.391074232    
AX        -1.715666513        0.4718729010       -0.2220741609    
AX        -1.146345315       -0.9852138360         1.169944487    
AX       -0.4136973720       -0.2977871474        0.7627452339    
AX        0.4924985661       -0.6343088953        0.3354238202    
AX        0.3165714953        0.4132253630        0.4312624427    
AX        0.6308768947       -0.3198467744       -0.7001429553    
AX       -0.3383268821       -0.3341375940       -0.3273685611    
AX       -0.7286716708        0.5432099257        0.1805944227    
    38
Energy=    -169.304465679695    
AX        0.8680674576        0.5364406308        -1.364912474    
AX         1.228668090       -0.8620690107         1.082366635    
AX       -0.4621656544        -1.285498115        0.3626969611    
AX         1.216131849        -1.211602637       -0.9012830649    
AX        -1.295814861       -0.4974684926        0.1416644389    
AX       -0.1262963243E-01     1.213500807        -1.499465484    
AX         1.324023379        0.2019923172        0.7612093868    
AX        -1.355656900        0.1183211412         1.058049331    
AX       -0.3714964677        0.6397618600         1.291613734    
AX        0.7349972576         1.379667787        0.8029008544E-01
AX       -0.1994985928         1.686704713       -0.5108748576    
AX       -0.9312480766        -1.238032361       -0.6127607237    
AX        0.6710877096         1.063069539         1.194708994    
AX       -0.2017557965       -0.9354437467        -1.366418380    
AX        -1.204085630         1.499654653       -0.1011918956    
AX       -0.8680598205        0.8206508754       -0.8869736082    
AX        -1.257970391         1.195404641        0.9390010513    
AX         1.066234551        -1.549590956        0.1966360706    
AX        -1.184785816       -0.2217784940       -0.9748503807    
AX         1.214695405        0.4810650011       -0.2930699461    
AX       -0.5405560405       -0.3208696500         1.831430701    
AX        0.1139318734        -1.106791222         1.280086338    
AX        0.7662647555       -0.5199967005        -1.742313288    
AX         1.649208975       -0.1992784102        -1.083997720    
AX       -0.2350352736         1.427537000        0.5562262026    
AX        0.2160177655        -1.325328821       -0.4660652349    
AX        0.1463981176        0.6673561454       -0.5536058558    
AX         1.507954725       -0.5578872769       -0.3194762459E-01
AX       -0.1725695457        0.1193214181        -1.407708339    
AX        0.4724074028       -0.7582657875E-01     1.391074233    
AX        -1.715666524        0.4718728805       -0.2220741670    
AX        -1.146345322       -0.9852138305         1.169944484    
AX       -0.4136973739       -0.2977871578        0.7627452348    
AX        0.4924985772       -0.6343088882        0.3354238178    
AX        0.3165714966        0.4132253728        0.4312624429    
AX        0.6308769013       -0.3198467720       -0.7001429660    
AX       -0.3383268846       -0.3341375858       -0.3273685574    
AX       -0.7286716865        0.5432099236        0.1805944268    
    38
Energy=    -169.304465679690    
AX        0.8680674557        0.5364406198        -1.364912476    
AX         1.228668089       -0.8620690222         1.082366615    
AX       -0.4621656554        -1.285498110        0.3626969666    
AX         1.216131861        -1.211602626       -0.9012830597    
AX        -1.295814856       -0.4974684921        0.1416644379    
AX       -0.1262961004E-01     1.213500784        -1.499465487    
AX         1.324023390        0.2019923337        0.7612093869    
AX        -1.355656888        0.1183211464         1.058049325    
AX       -0.3714964700        0.6397618485         1.291613728    
AX        0.7349972486         1.379667783        0.8029007626E-01
AX       -0.1994985807         1.686704717       -0.5108748591    
AX       -0.9312480830        -1.238032344       -0.6127607084    
AX        0.6710877172         1.063069537         1.194708990    
AX       -0.2017558172       -0.9354437385        -1.366418375    
AX        -1.204085633         1.499654640       -0.1011918975    
AX       -0.8680598245        0.8206508851       -0.8869736007    
AX        -1.257970398         1.195404653        0.9390010551    
AX         1.066234546        -1.549590974        0.1966360679    
AX        -1.184785797       -0.2217784890       -0.9748503958    
AX         1.214695405        0.4810649990       -0.2930699491    
AX       -0.5405560535       -0.3208696620         1.831430699    
AX        0.1139318489        -1.106791206         1.280086350    
AX        0.7662647664       -0.5199967002        -1.742313282    
AX         1.649208985       -0.1992783912        -1.083997714    
AX       -0.2350352752         1.427536993        0.5562262027    
AX        0.2160177698        -1.325328806       -0.4660652345    
AX        0.1463981140        0.6673561435       -0.5536058509    
AX         1.507954725       -0.5578872817       -0.3194762491E-01
AX       -0.1725695723        0.1193214227        -1.407708337    
AX        0.4724074150       -0.7582657921E-01     1.391074234    
AX        -1.715666533        0.4718728578       -0.2220741597    
AX        -1.146345320       -0.9852138275         1.169944491    
AX       -0.4136973890       -0.2977871809        0.7627452417    
AX        0.4924986001       -0.6343089000        0.3354238187    
AX        0.3165715119        0.4132253903        0.4312624416    
AX        0.6308769419       -0.3198467654       -0.7001429917    
AX       -0.3383269266       -0.3341375783       -0.3273685492    
AX       -0.7286717078        0.5432099207        0.1805944243    
    38
Energy=    -169.304465679688    
AX        0.8680674418        0.5364406305        -1.364912506    
AX         1.228668115       -0.8620689892         1.082366692    
AX       -0.4621657002        -1.285498027        0.3626970552    
AX         1.216131752        -1.211602717       -0.9012831355    
AX        -1.295814860       -0.4974684369        0.1416644032    
AX       -0.1262957866E-01     1.213500907        -1.499465410    
AX         1.324023318        0.2019922083        0.7612092844    
AX        -1.355656919        0.1183212224         1.058049307    
AX       -0.3714964549        0.6397618629         1.291613864    
AX        0.7349972540         1.379667772        0.8029005982E-01
AX       -0.1994987130         1.686704583       -0.5108746711    
AX       -0.9312480233        -1.238032431       -0.6127606735    
AX        0.6710878433         1.063069528         1.194709063    
AX       -0.2017556552       -0.9354436247        -1.366418163    
AX        -1.204085851         1.499654554       -0.1011918623    
AX       -0.8680597893        0.8206508842       -0.8869736383    
AX        -1.257970318         1.195404748        0.9390011965    
AX         1.066234560        -1.549590923        0.1966362006    
AX        -1.184785610       -0.2217785696       -0.9748505186    
AX         1.214695331        0.4810649159       -0.2930699929    
AX       -0.5405561219       -0.3208697184         1.831430679    
AX        0.1139320234        -1.106791194         1.280086261    
AX        0.7662648018       -0.5199966697        -1.742313440    
AX         1.649208914       -0.1992784858        -1.083997869    
AX       -0.2350352322         1.427536972        0.5562263649    
AX        0.2160177880        -1.325328876       -0.4660650672    
AX        0.1463980907        0.6673560444       -0.5536058735    
AX         1.507954765       -0.5578873522       -0.3194776601E-01
AX       -0.1725695150        0.1193215268        -1.407708536    
AX        0.4724074075       -0.7582653830E-01     1.391074291    
AX        -1.715666530        0.4718727821       -0.2220744844    
AX        -1.146345474       -0.9852137459         1.169944447    
AX       -0.4136973673       -0.2977871290        0.7627452512    
AX        0.4924986545       -0.6343087322        0.3354238159    
AX        0.3165714154        0.4132254936        0.4312625118    
AX        0.6308768346       -0.3198468591       -0.7001430909    
AX       -0.3383268436       -0.3341375805       -0.3273684999    
AX       -0.7286717556        0.5432099653        0.1805944498    
    38
Energy=    -169.304465679684    
AX        0.8680674350        0.5364406360        -1.364912514    
AX         1.228668125       -0.8620689654         1.082366732    
AX       -0.4621657226        -1.285497995        0.3626970872    
AX         1.216131695        -1.211602756       -0.9012831753    
AX        -1.295814850       -0.4974684097        0.1416643858    
AX       -0.1262957172E-01     1.213500976        -1.499465378    
AX         1.324023275        0.2019921439        0.7612092347    
AX        -1.355656933        0.1183212504         1.058049301    
AX       -0.3714964492        0.6397618703         1.291613930    
AX        0.7349972566         1.379667765        0.8029005769E-01
AX       -0.1994987763         1.686704522       -0.5108745827    
AX       -0.9312479966        -1.238032475       -0.6127606591    
AX        0.6710878908         1.063069525         1.194709093    
AX       -0.2017555690       -0.9354435683        -1.366418058    
AX        -1.204085949         1.499654519       -0.1011918495    
AX       -0.8680597712        0.8206508813       -0.8869736564    
AX        -1.257970281         1.195404784        0.9390012543    
AX         1.066234569        -1.549590891        0.1966362648    
AX        -1.184785523       -0.2217786070       -0.9748505626    
AX         1.214695292        0.4810648693       -0.2930700173    
AX       -0.5405561426       -0.3208697399         1.831430663    
AX        0.1139321149        -1.106791198         1.280086217    
AX        0.7662648122       -0.5199966463        -1.742313514    
AX         1.649208866       -0.1992785397        -1.083997939    
AX       -0.2350352090         1.427536971        0.5562264378    
AX        0.2160177932        -1.325328924       -0.4660649786    
AX        0.1463980894        0.6673560006       -0.5536058814    
AX         1.507954777       -0.5578873852       -0.3194783035E-01
AX       -0.1725694759        0.1193215770        -1.407708636    
AX        0.4724074009       -0.7582652006E-01     1.391074319    
AX        -1.715666514        0.4718727566       -0.2220746341    
AX        -1.146345541       -0.9852137068         1.169944429    
AX       -0.4136973788       -0.2977871012        0.7627452714    
AX        0.4924986919       -0.6343086703        0.3354238178    
AX        0.3165713850        0.4132255494        0.4312625437    
AX        0.6308768207       -0.3198468964       -0.7001431522    
AX       -0.3383268490       -0.3341375864       -0.3273684706    
AX       -0.7286717862        0.5432099863        0.1805944493    
    38
Energy=    -169.304465679679    
AX        0.8680674353        0.5364406500        -1.364912513    
AX         1.228668132       -0.8620689355         1.082366775    
AX       -0.4621657351        -1.285497991        0.3626970999    
AX         1.216131644        -1.211602796       -0.9012831986    
AX        -1.295814844       -0.4974683945        0.1416643703    
AX       -0.1262958520E-01     1.213501060        -1.499465346    
AX         1.324023240        0.2019920912        0.7612092044    
AX        -1.355656954        0.1183212608         1.058049309    
AX       -0.3714964425        0.6397618873         1.291613981    
AX        0.7349972650         1.379667759        0.8029006705E-01
AX       -0.1994988261         1.686704481       -0.5108745311    
AX       -0.9312479609        -1.238032519       -0.6127606698    
AX        0.6710879101         1.063069512         1.194709113    
AX       -0.2017554776       -0.9354435338        -1.366418000    
AX        -1.204085990         1.499654513       -0.1011918306    
AX       -0.8680597681        0.8206508727       -0.8869736829    
AX        -1.257970253         1.195404793        0.9390012925    
AX         1.066234585        -1.549590843        0.1966363036    
AX        -1.184785485       -0.2217786393       -0.9748505659    
AX         1.214695256        0.4810648388       -0.2930700297    
AX       -0.5405561343       -0.3208697320         1.831430657    
AX        0.1139321968        -1.106791213         1.280086182    
AX        0.7662648107       -0.5199966380        -1.742313564    
AX         1.649208818       -0.1992786002        -1.083997985    
AX       -0.2350351924         1.427536974        0.5562264733    
AX        0.2160177888        -1.325328980       -0.4660649173    
AX        0.1463980798        0.6673559822       -0.5536058891    
AX         1.507954778       -0.5578873920       -0.3194787063E-01
AX       -0.1725694260        0.1193216077        -1.407708710    
AX        0.4724073817       -0.7582650656E-01     1.391074327    
AX        -1.715666497        0.4718727720       -0.2220747343    
AX        -1.146345585       -0.9852136813         1.169944407    
AX       -0.4136973786       -0.2977870559        0.7627452887    
AX        0.4924987020       -0.6343086357        0.3354238205    
AX        0.3165713547        0.4132255699        0.4312625614    
AX        0.6308767952       -0.3198469355       -0.7001431852    
AX       -0.3383268438       -0.3341376009       -0.3273684526    
AX       -0.7286717949        0.5432099976        0.1805944430    
    38
Energy=    -169.304465679675    
AX        0.8680674379        0.5364406614        -1.364912508    
AX         1.228668135       -0.8620689193         1.082366798    
AX       -0.4621657371        -1.285498005        0.3626970916    
AX         1.216131621        -1.211602822       -0.9012832045    
AX        -1.295814844       -0.4974683901        0.1416643608    
AX       -0.1262959779E-01     1.213501109        -1.499465326    
AX         1.324023222        0.2019920715        0.7612091965    
AX        -1.355656961        0.1183212579         1.058049316    
AX       -0.3714964383        0.6397618947         1.291614001    
AX        0.7349972697         1.379667756        0.8029007668E-01
AX       -0.1994988481         1.686704470       -0.5108745164    
AX       -0.9312479338        -1.238032541       -0.6127606823    
AX        0.6710879138         1.063069497         1.194709119    
AX       -0.2017554273       -0.9354435226        -1.366417989    
AX        -1.204085989         1.499654519       -0.1011918166    
AX       -0.8680597772        0.8206508677       -0.8869737015    
AX        -1.257970241         1.195404788        0.9390013076    
AX         1.066234596        -1.549590811        0.1966363143    
AX        -1.184785481       -0.2217786547       -0.9748505528    
AX         1.214695234        0.4810648251       -0.2930700349    
AX       -0.5405561227       -0.3208697160         1.831430660    
AX        0.1139322382        -1.106791222         1.280086169    
AX        0.7662648094       -0.5199966422        -1.742313582    
AX         1.649208793       -0.1992786328        -1.083997998    
AX       -0.2350351839         1.427536979        0.5562264777    
AX        0.2160177791        -1.325329014       -0.4660648891    
AX        0.1463980727        0.6673559778       -0.5536058968    
AX         1.507954773       -0.5578873842       -0.3194788475E-01
AX       -0.1725693994        0.1193216197        -1.407708738    
AX        0.4724073677       -0.7582649865E-01     1.391074323    
AX        -1.715666487        0.4718727961       -0.2220747705    
AX        -1.146345601       -0.9852136704         1.169944395    
AX       -0.4136973872       -0.2977870141        0.7627453040    
AX        0.4924987075       -0.6343086304        0.3354238177    
AX        0.3165713436        0.4132255704        0.4312625686    
AX        0.6308767845       -0.3198469518       -0.7001431959    
AX       -0.3383268446       -0.3341376118       -0.3273684438    
AX       -0.7286717987        0.5432099946        0.1805944360    
    38
Energy=    -169.304465679668    
AX        0.8680675063        0.5364407485        -1.364912551    
AX         1.228668158       -0.8620689120         1.082366845    
AX       -0.4621658469        -1.285497996        0.3626971781    
AX         1.216131493        -1.211602928       -0.9012833258    
AX        -1.295814842       -0.4974683836        0.1416643650    
AX       -0.1262953403E-01     1.213501245        -1.499465252    
AX         1.324023138        0.2019920338        0.7612091066    
AX        -1.355656955        0.1183213077         1.058049303    
AX       -0.3714964837        0.6397618941         1.291614085    
AX        0.7349972499         1.379667667        0.8029005914E-01
AX       -0.1994989277         1.686704346       -0.5108744218    
AX       -0.9312479943        -1.238032520       -0.6127606334    
AX        0.6710878514         1.063069552         1.194709173    
AX       -0.2017552469       -0.9354433150        -1.366417605    
AX        -1.204086106         1.499654455       -0.1011918829    
AX       -0.8680597294        0.8206508406       -0.8869737199    
AX        -1.257970237         1.195404821        0.9390012685    
AX         1.066234638        -1.549590816        0.1966364691    
AX        -1.184785338       -0.2217786959       -0.9748506965    
AX         1.214695203        0.4810647233       -0.2930701105    
AX       -0.5405560057       -0.3208698326         1.831430739    
AX        0.1139322921        -1.106791227         1.280086105    