    38
Energy=    -172.877736411173    
AX        0.8307258512        0.4632536225        -1.362727439    
AX         1.480907178       -0.9326285703        0.7098843203    
AX       -0.2759293470        -1.421960050        0.6095765931    
AX         1.197007682        -1.024541595       -0.3769451604    
AX        -1.558519937       -0.1923012814        0.2321001452    
AX        0.3344225362E-01     1.230405959        -1.584002440    
AX         1.202871424        0.1406311440        0.7216961416    
AX        -1.309233549       -0.9675736224E-01     1.325485608    
AX       -0.5219379574        0.6504580975         1.109980820    
AX        0.9660139875         1.070355991        0.9898770811E-01
AX       -0.2346636766         1.819389679       -0.6604235437    
AX       -0.9253376731        -1.004242383       -0.1993669823    
AX        0.5743066140        0.9819866873         1.177336824    
AX       -0.5274754205       -0.9031892805        -1.236448497    
AX        -1.131998566         1.556766083       -0.4661592695E-01
AX       -0.8834016680        0.9735040241       -0.9861323093    
AX        -1.541800198        0.8199030138        0.7142525646    
AX        0.7714533371        -1.731895140        0.3750914047    
AX        -1.158620962       -0.9310783762E-01   -0.8078687597    
AX         1.684127122        0.7089819574       -0.6650491886    
AX       -0.4992723024       -0.8650774472         1.560726523    
AX        0.5558229326        -1.186288160         1.328157573    
AX        0.5432156658       -0.6042497159        -1.184517616    
AX         1.612612433       -0.3072970943        -1.127230119    
AX       -0.1106477489         1.384304971        0.3536012706    
AX        0.1220843448        -1.319071679       -0.4307487638    
AX        0.1323525850        0.7945303364       -0.5854820937    
AX         1.909276218       -0.2220925611       -0.5021286634E-01
AX       -0.2459124731        0.1634362401        -1.413544786    
AX        0.2839016658       -0.1135376452         1.340605709    
AX        -1.786779473        0.7158886023       -0.3753845076    
AX        -1.321088847        -1.102142717        0.8368640089    
AX       -0.5401416703       -0.3562846581        0.6023311015    
AX        0.4834455939       -0.6653650645        0.3769170945    
AX        0.2121645510        0.3635287518        0.3848899779    
AX        0.8956146586        0.2993692939E-01   -0.3570009451    
AX       -0.1532665979       -0.2606921303       -0.4164959939    
AX       -0.7653180303        0.5354602837        0.7712550550E-02
    38
Energy=    -172.877736411171    
AX        0.8307258475        0.4632536082        -1.362727454    
AX         1.480907183       -0.9326285589        0.7098843226    
AX       -0.2759293525        -1.421960053        0.6095765897    
AX         1.197007684        -1.024541587       -0.3769451487    
AX        -1.558519941       -0.1923012857        0.2321001478    
AX        0.3344224606E-01     1.230405956        -1.584002446    
AX         1.202871424        0.1406311384        0.7216961485    
AX        -1.309233536       -0.9675736578E-01     1.325485611    
AX       -0.5219379642        0.6504581107         1.109980805    
AX        0.9660140024         1.070355980        0.9898771771E-01
AX       -0.2346636807         1.819389681       -0.6604235518    
AX       -0.9253376782        -1.004242388       -0.1993669880    
AX        0.5743066119        0.9819866864         1.177336833    
AX       -0.5274754193       -0.9031892783        -1.236448500    
AX        -1.131998553         1.556766080       -0.4661589962E-01
AX       -0.8834016697        0.9735040304       -0.9861323004    
AX        -1.541800207        0.8199030037        0.7142525699    
AX        0.7714533466        -1.731895144        0.3750914088    
AX        -1.158620968       -0.9310783477E-01   -0.8078687618    
AX         1.684127122        0.7089819626       -0.6650492093    
AX       -0.4992723087       -0.8650774552         1.560726509    
AX        0.5558229345        -1.186288151         1.328157579    
AX        0.5432156653       -0.6042497224        -1.184517603    
AX         1.612612443       -0.3072971034        -1.127230112    
AX       -0.1106477257         1.384304968        0.3536012595    
AX        0.1220843438        -1.319071681       -0.4307487644    
AX        0.1323525881        0.7945303397       -0.5854820843    
AX         1.909276220       -0.2220925436       -0.5021285962E-01
AX       -0.2459124773        0.1634362410        -1.413544784    
AX        0.2839016459       -0.1135376476         1.340605716    
AX        -1.786779474        0.7158886106       -0.3753844974    
AX        -1.321088845        -1.102142715        0.8368639992    
AX       -0.5401416837       -0.3562846768        0.6023311086    
AX        0.4834455884       -0.6653650504        0.3769170704    
AX        0.2121645415        0.3635287661        0.3848899421    
AX        0.8956146435        0.2993691922E-01   -0.3570009339    
AX       -0.1532665761       -0.2606921394       -0.4164959951    
AX       -0.7653180193        0.5354602980        0.7712556830E-02
    38
Energy=    -172.877736411171    
AX        0.8307258641        0.4632536617        -1.362727418    
AX         1.480907178       -0.9326286089        0.7098843202    
AX       -0.2759293463        -1.421960047        0.6095766195    
AX         1.197007666        -1.024541618       -0.3769451994    
AX        -1.558519917       -0.1923012910        0.2321001286    
AX        0.3344228182E-01     1.230405981        -1.584002423    
AX         1.202871431        0.1406311390        0.7216961307    
AX        -1.309233575       -0.9675736120E-01     1.325485587    
AX       -0.5219379480        0.6504580827         1.109980864    
AX        0.9660139512         1.070356005        0.9898769043E-01
AX       -0.2346636837         1.819389683       -0.6604235261    
AX       -0.9253376390        -1.004242381       -0.1993669471    
AX        0.5743066236        0.9819866908         1.177336806    
AX       -0.5274754195       -0.9031892791        -1.236448491    
AX        -1.131998600         1.556766088       -0.4661598786E-01
AX       -0.8834016562        0.9735040161       -0.9861323353    
AX        -1.541800181        0.8199030225        0.7142525395    
AX        0.7714533179        -1.731895130        0.3750913926    
AX        -1.158620958       -0.9310785241E-01   -0.8078687667    
AX         1.684127137        0.7089819567       -0.6650491497    
AX       -0.4992722848       -0.8650774126         1.560726559    
AX        0.5558229264        -1.186288187         1.328157571    
AX        0.5432156473       -0.6042497035        -1.184517645    
AX         1.612612396       -0.3072970723        -1.127230140    
AX       -0.1106477924         1.384304972        0.3536012876    
AX        0.1220843406        -1.319071667       -0.4307487669    
AX        0.1323525781        0.7945303394       -0.5854820885    
AX         1.909276204       -0.2220926029       -0.5021287356E-01
AX       -0.2459124625        0.1634362468        -1.413544783    
AX        0.2839017128       -0.1135376459         1.340605723    
AX        -1.786779464        0.7158885776       -0.3753845468    
AX        -1.321088847        -1.102142723        0.8368640400    
AX       -0.5401416562       -0.3562846509        0.6023311267    
AX        0.4834455997       -0.6653650575        0.3769171013    
AX        0.2121645625        0.3635287397        0.3848899906    
AX        0.8956146534        0.2993692238E-01   -0.3570009458    
AX       -0.1532666032       -0.2606921243       -0.4164959843    
AX       -0.7653180369        0.5354602912        0.7712541698E-02
    38
Energy=    -172.877736411170    
AX        0.8307258782        0.4632536992        -1.362727383    
AX         1.480907165       -0.9326286299        0.7098843186    
AX       -0.2759293462        -1.421960034        0.6095766243    
AX         1.197007656        -1.024541636       -0.3769452253    
AX        -1.558519914       -0.1923012880        0.2321001215    
AX        0.3344230083E-01     1.230405984        -1.584002413    
AX         1.202871455        0.1406311539        0.7216961188    
AX        -1.309233597       -0.9675736042E-01     1.325485570    
AX       -0.5219379333        0.6504580457         1.109980895    
AX        0.9660139022         1.070356037        0.9898766505E-01
AX       -0.2346636772         1.819389678       -0.6604235080    
AX       -0.9253376273        -1.004242377       -0.1993669226    
AX        0.5743066364        0.9819867025         1.177336789    
AX       -0.5274754262       -0.9031892854        -1.236448481    
AX        -1.131998629         1.556766088       -0.4661604673E-01
AX       -0.8834016436        0.9735040024       -0.9861323583    
AX        -1.541800152        0.8199030492        0.7142525291    
AX        0.7714532911        -1.731895128        0.3750913874    
AX        -1.158620958       -0.9310785862E-01   -0.8078687706    
AX         1.684127151        0.7089819520       -0.6650490987    
AX       -0.4992722664       -0.8650773878         1.560726582    
AX        0.5558229208        -1.186288224         1.328157578    
AX        0.5432156399       -0.6042496866        -1.184517669    
AX         1.612612383       -0.3072970454        -1.127230164    
AX       -0.1106478478         1.384304959        0.3536013094    
AX        0.1220843489        -1.319071641       -0.4307487723    
AX        0.1323525607        0.7945303268       -0.5854820830    
AX         1.909276198       -0.2220926469       -0.5021288471E-01
AX       -0.2459124523        0.1634362354        -1.413544793    
AX        0.2839017578       -0.1135376591         1.340605730    
AX        -1.786779468        0.7158885650       -0.3753845712    
AX        -1.321088835        -1.102142716        0.8368640641    
AX       -0.5401416491       -0.3562846503        0.6023311440    
AX        0.4834456061       -0.6653650507        0.3769171064    
AX        0.2121645643        0.3635287418        0.3848899901    
AX        0.8956146463        0.2993690801E-01   -0.3570009405    
AX       -0.1532666036       -0.2606921182       -0.4164959801    
AX       -0.7653180369        0.5354602955        0.7712541607E-02
    38
Energy=    -172.877736411166    
AX        0.8307258812        0.4632537483        -1.362727329    
AX         1.480907139       -0.9326286560        0.7098842986    
AX       -0.2759293334        -1.421960003        0.6095766214    
AX         1.197007655        -1.024541648       -0.3769452494    
AX        -1.558519914       -0.1923012761        0.2321001195    
AX        0.3344232379E-01     1.230405984        -1.584002397    
AX         1.202871488        0.1406311758        0.7216961170    
AX        -1.309233633       -0.9675734735E-01     1.325485558    
AX       -0.5219379189        0.6504579855         1.109980921    
AX        0.9660138574         1.070356076        0.9898763457E-01
AX       -0.2346636591         1.819389670       -0.6604234859    
AX       -0.9253376367        -1.004242371       -0.1993669097    
AX        0.5743066616        0.9819867363         1.177336780    
AX       -0.5274754530       -0.9031893069        -1.236448458    
AX        -1.131998666         1.556766078       -0.4661612743E-01
AX       -0.8834016279        0.9735039777       -0.9861323797    
AX        -1.541800117        0.8199030907        0.7142525123    
AX        0.7714532418        -1.731895149        0.3750913828    
AX        -1.158620942       -0.9310785672E-01   -0.8078687751    
AX         1.684127150        0.7089819315       -0.6650490414    
AX       -0.4992722531       -0.8650773737         1.560726610    
AX        0.5558229188        -1.186288262         1.328157603    
AX        0.5432156432       -0.6042496522        -1.184517702    
AX         1.612612384       -0.3072970114        -1.127230208    
AX       -0.1106479334         1.384304934        0.3536013452    
AX        0.1220843772        -1.319071595       -0.4307487738    
AX        0.1323525357        0.7945303013       -0.5854820635    
AX         1.909276182       -0.2220927027       -0.5021291452E-01
AX       -0.2459124390        0.1634362149        -1.413544822    
AX        0.2839018026       -0.1135376825         1.340605734    
AX        -1.786779476        0.7158885531       -0.3753846038    
AX        -1.321088796        -1.102142699        0.8368640940    
AX       -0.5401416324       -0.3562846383        0.6023311444    
AX        0.4834456211       -0.6653650680        0.3769171426    
AX        0.2121645735        0.3635287507        0.3848899963    
AX        0.8956146385        0.2993690997E-01   -0.3570009410    
AX       -0.1532666131       -0.2606920924       -0.4164959743    
AX       -0.7653180308        0.5354602724        0.7712540429E-02
    38
Energy=    -172.877736411160    
AX        0.8307258700        0.4632537776        -1.362727302    
AX         1.480907124       -0.9326286838        0.7098842731    
AX       -0.2759293184        -1.421959989        0.6095766183    
AX         1.197007652        -1.024541651       -0.3769452570    
AX        -1.558519907       -0.1923012700        0.2321001216    
AX        0.3344233267E-01     1.230405990        -1.584002383    
AX         1.202871514        0.1406311762        0.7216961326    
AX        -1.309233653       -0.9675733271E-01     1.325485555    
AX       -0.5219379111        0.6504579539         1.109980925    
AX        0.9660138545         1.070356088        0.9898762863E-01
AX       -0.2346636477         1.819389672       -0.6604234730    
AX       -0.9253376513        -1.004242369       -0.1993669099    
AX        0.5743066764        0.9819867629         1.177336778    
AX       -0.5274754680       -0.9031893220        -1.236448441    
AX        -1.131998689         1.556766067       -0.4661618066E-01
AX       -0.8834016190        0.9735039645       -0.9861323894    
AX        -1.541800109        0.8199031118        0.7142524900    
AX        0.7714532066        -1.731895168        0.3750913825    
AX        -1.158620931       -0.9310785101E-01   -0.8078687819    
AX         1.684127147        0.7089819180       -0.6650490355    
AX       -0.4992722542       -0.8650773747         1.560726625    
AX        0.5558229266        -1.186288272         1.328157628    
AX        0.5432156440       -0.6042496264        -1.184517717    
AX         1.612612389       -0.3072969978        -1.127230245    
AX       -0.1106479827         1.384304910        0.3536013708    
AX        0.1220843993        -1.319071562       -0.4307487703    
AX        0.1323525282        0.7945302853       -0.5854820412    
AX         1.909276170       -0.2220927280       -0.5021293654E-01
AX       -0.2459124335        0.1634362049        -1.413544840    
AX        0.2839018098       -0.1135376895         1.340605743    
AX        -1.786779482        0.7158885372       -0.3753846299    
AX        -1.321088767        -1.102142687        0.8368641073    
AX       -0.5401416327       -0.3562846163        0.6023311451    
AX        0.4834456508       -0.6653650973        0.3769171665    
AX        0.2121645693        0.3635287819        0.3848900117    
AX        0.8956146176        0.2993690931E-01   -0.3570009427    
AX       -0.1532666038       -0.2606920717       -0.4164959767    
AX       -0.7653180211        0.5354602478        0.7712551728E-02
    38
Energy=    -172.877736411151    
AX        0.8307258529        0.4632538329        -1.362727277    
AX         1.480907179       -0.9326287560        0.7098841856    
AX       -0.2759293233        -1.421959956        0.6095766195    
AX         1.197007633        -1.024541621       -0.3769452820    
AX        -1.558519932       -0.1923012480        0.2321001689    
AX        0.3344230687E-01     1.230406009        -1.584002328    
AX         1.202871569        0.1406311456        0.7216961130    
AX        -1.309233702       -0.9675727839E-01     1.325485572    
AX       -0.5219379190        0.6504579057         1.109980977    
AX        0.9660138671         1.070356115        0.9898765404E-01
AX       -0.2346635501         1.819389632       -0.6604234110    
AX       -0.9253376940        -1.004242330       -0.1993669406    
AX        0.5743066938        0.9819868167         1.177336801    
AX       -0.5274754389       -0.9031893334        -1.236448420    
AX        -1.131998752         1.556766020       -0.4661638255E-01
AX       -0.8834016123        0.9735039374       -0.9861323912    
AX        -1.541800084        0.8199031981        0.7142524353    
AX        0.7714531848        -1.731895243        0.3750913734    
AX        -1.158620903       -0.9310786240E-01   -0.8078688024    
AX         1.684127154        0.7089818912       -0.6650490320    
AX       -0.4992722623       -0.8650773443         1.560726594    
AX        0.5558229823        -1.186288256         1.328157674    
AX        0.5432156499       -0.6042495802        -1.184517698    
AX         1.612612384       -0.3072969948        -1.127230287    
AX       -0.1106481410         1.384304856        0.3536014472    
AX        0.1220843780        -1.319071525       -0.4307487586    
AX        0.1323524843        0.7945303043       -0.5854820054    
AX         1.909276182       -0.2220927806       -0.5021302197E-01
AX       -0.2459124264        0.1634362053        -1.413544860    
AX        0.2839018362       -0.1135376815         1.340605765    
AX        -1.786779518        0.7158884482       -0.3753846768    
AX        -1.321088741        -1.102142643        0.8368641004    
AX       -0.5401416452       -0.3562846175        0.6023311637    
AX        0.4834456508       -0.6653650384        0.3769171754    
AX        0.2121646003        0.3635287623        0.3848900866    
AX        0.8956146672        0.2993689035E-01   -0.3570009151    
AX       -0.1532665737       -0.2606921286       -0.4164959678    
AX       -0.7653180369        0.5354602478        0.7712552422E-02
    38
Energy=    -172.877736411125    
AX        0.8307259590        0.4632539212        -1.362727194    
AX         1.480907262       -0.9326287368        0.7098841625    
AX       -0.2759293864        -1.421959940        0.6095765929    
AX         1.197007528        -1.024541625       -0.3769452863    
AX        -1.558520053       -0.1923011524        0.2321002943    
AX        0.3344222055E-01     1.230406007        -1.584002313    
AX         1.202871692        0.1406312121        0.7216958416    
AX        -1.309233775       -0.9675723721E-01     1.325485628    
AX       -0.5219378743        0.6504577898         1.109981155    
AX        0.9660136195         1.070356287        0.9898759747E-01
AX       -0.2346633482         1.819389496       -0.6604232965    
AX       -0.9253377840        -1.004242227       -0.1993669694    
AX        0.5743066683        0.9819868316         1.177336776    
AX       -0.5274752963       -0.9031893052        -1.236448516    
AX        -1.131998867         1.556766020       -0.4661673024E-01
AX       -0.8834017053        0.9735038863       -0.9861324567    
AX        -1.541799933        0.8199034144        0.7142524992    
AX        0.7714532818        -1.731895220        0.3750912961    
AX        -1.158620900       -0.9310792663E-01   -0.8078687931    
AX         1.684127313        0.7089818776       -0.6650487313    
AX       -0.4992721940       -0.8650771643         1.560726504    
AX        0.5558230093        -1.186288310         1.328157537    
AX        0.5432156880       -0.6042495419        -1.184517622    
AX         1.612612366       -0.3072970004        -1.127230214    
AX       -0.1106484148         1.384304773        0.3536015754    
AX        0.1220842456        -1.319071649       -0.4307487169    
AX        0.1323524233        0.7945301596       -0.5854819859    
AX         1.909276409       -0.2220930090       -0.5021310152E-01
AX       -0.2459123891        0.1634362153        -1.413544834    
AX        0.2839021213       -0.1135376771         1.340605769    
AX        -1.786779615        0.7158883006       -0.3753846263    
AX        -1.321088872        -1.102142596        0.8368640512    
AX       -0.5401416832       -0.3562845802        0.6023311307    
AX        0.4834456379       -0.6653650742        0.3769171746    
AX        0.2121645374        0.3635287415        0.3848900517    
AX        0.8956147407        0.2993696768E-01   -0.3570008580    
AX       -0.1532665675       -0.2606921322       -0.4164959206    
AX       -0.7653180629        0.5354602031        0.7712528569E-02
    38
Energy=    -172.877736411092    
AX        0.8307260520        0.4632539932        -1.362727122    
AX         1.480907262       -0.9326286991        0.7098841677    
AX       -0.2759294288        -1.421959969        0.6095765657    
AX         1.197007475        -1.024541641       -0.3769452765    
AX        -1.558520105       -0.1923011132        0.2321003711    
AX        0.3344213688E-01     1.230405991        -1.584002308    
AX         1.202871759        0.1406313019        0.7216956409    
AX        -1.309233800       -0.9675720755E-01     1.325485672    
AX       -0.5219378160        0.6504577177         1.109981274    
AX        0.9660134757         1.070356416        0.9898755170E-01
AX       -0.2346632744         1.819389433       -0.6604232519    
AX       -0.9253378479        -1.004242192       -0.1993669964    
AX        0.5743066703        0.9819868214         1.177336726    
AX       -0.5274752076       -0.9031892715        -1.236448572    
AX        -1.131998951         1.556766021       -0.4661691465E-01
AX       -0.8834017777        0.9735038647       -0.9861324844    
AX        -1.541799837        0.8199035180        0.7142525339    
AX        0.7714533229        -1.731895206        0.3750912609    
AX        -1.158620932       -0.9310793833E-01   -0.8078687862    
AX         1.684127494        0.7089818412       -0.6650485118    
AX       -0.4992721624       -0.8650770485         1.560726434    
AX        0.5558230216        -1.186288339         1.328157468    
AX        0.5432157131       -0.6042495271        -1.184517557    
AX         1.612612397       -0.3072970123        -1.127230163    
AX       -0.1106485791         1.384304739        0.3536016511    
AX        0.1220841583        -1.319071732       -0.4307487198    
AX        0.1323523858        0.7945301087       -0.5854820139    
AX         1.909276573       -0.2220931635       -0.5021312422E-01
AX       -0.2459123675        0.1634362246        -1.413544810    
AX        0.2839022864       -0.1135376633         1.340605712    
AX        -1.786779677        0.7158882051       -0.3753845633    
AX        -1.321088947        -1.102142569        0.8368640277    
AX       -0.5401417305       -0.3562845495        0.6023311207    
AX        0.4834456242       -0.6653650546        0.3769171117    
AX        0.2121645561        0.3635287092        0.3848900797    
AX        0.8956147542        0.2993695999E-01   -0.3570008029    
AX       -0.1532665335       -0.2606921791       -0.4164959213    
AX       -0.7653181426        0.5354602118        0.7712531418E-02
    38
Energy=    -172.877736411008    
AX        0.8307263395        0.4632540687        -1.362726912    
AX         1.480907040       -0.9326282762        0.7098844190    
AX       -0.2759295681        -1.421959966        0.6095765391    
AX         1.197007501        -1.024541698       -0.3769452887    
AX        -1.558520196       -0.1923010319        0.2321003966    
AX        0.3344218575E-01     1.230405813        -1.584002475    
AX         1.202871772        0.1406317190        0.7216951730    
AX        -1.309233828       -0.9675733043E-01     1.325485624    
AX       -0.5219376220        0.6504574455         1.109981403    
AX        0.9660128556         1.070356812        0.9898720024E-01
AX       -0.2346632560         1.819389282       -0.6604232789    
AX       -0.9253378706        -1.004242216       -0.1993669398    
AX        0.5743066888        0.9819866910         1.177336576    
AX       -0.5274752912       -0.9031892559        -1.236448631    
AX        -1.131998988         1.556766158       -0.4661686487E-01
AX       -0.8834018768        0.9735038029       -0.9861325699    
AX        -1.541799492        0.8199036541        0.7142528323    
AX        0.7714533892        -1.731895101        0.3750911773    
AX        -1.158621024       -0.9310797741E-01   -0.8078687095    
AX         1.684127718        0.7089818367       -0.6650476764    
AX       -0.4992719820       -0.8650768457         1.560726457    
AX        0.5558228033        -1.186288638         1.328157273    
AX        0.5432157701       -0.6042495440        -1.184517530    
AX         1.612612518       -0.3072968931        -1.127229950    
AX       -0.1106487037         1.384304738        0.3536016525    
AX        0.1220840996        -1.319071832       -0.4307488033    
AX        0.1323522412        0.7945299715       -0.5854821844    
AX         1.909276764       -0.2220935145       -0.5021303783E-01
AX       -0.2459122661        0.1634361446        -1.413544840    
AX        0.2839028280       -0.1135378287         1.340605473    
AX        -1.786779713        0.7158884072       -0.3753843357    
AX        -1.321089031        -1.102142557        0.8368641343    
AX       -0.5401417829       -0.3562846014        0.6023310844    
AX        0.4834455088       -0.6653650740        0.3769169704    
AX        0.2121645504        0.3635286619        0.3848899121    
AX        0.8956147730        0.2993694856E-01   -0.3570007359    
AX       -0.1532665877       -0.2606922433       -0.4164959929    
AX       -0.7653182658        0.5354602690        0.7712457235E-02
    38
Energy=    -172.877736410978    
AX        0.8307263964        0.4632540784        -1.362726872    
AX         1.480906992       -0.9326282002        0.7098844466    
AX       -0.2759295833        -1.421959964        0.6095765420    
AX         1.197007517        -1.024541710       -0.3769452957    
AX        -1.558520213       -0.1923010232        0.2321004040    
AX        0.3344220103E-01     1.230405774        -1.584002502    
AX         1.202871780        0.1406318069        0.7216950795    
AX        -1.309233842       -0.9675734185E-01     1.325485617    
AX       -0.5219375881        0.6504573923         1.109981438    
AX        0.9660127332         1.070356885        0.9898716220E-01
AX       -0.2346632470         1.819389255       -0.6604232871    
AX       -0.9253378793        -1.004242222       -0.1993669239    
AX        0.5743066934        0.9819866493         1.177336548    
AX       -0.5274753103       -0.9031892589        -1.236448625    
AX        -1.131998984         1.556766189       -0.4661686112E-01
AX       -0.8834018857        0.9735037963       -0.9861325866    
AX        -1.541799432        0.8199036839        0.7142528764    
AX        0.7714533981        -1.731895090        0.3750911630    
AX        -1.158621041       -0.9310797656E-01   -0.8078686995    
AX         1.684127744        0.7089818366       -0.6650475206    
AX       -0.4992719625       -0.8650767988         1.560726455    
AX        0.5558227824        -1.186288675         1.328157238    
AX        0.5432157804       -0.6042495572        -1.184517533    
AX         1.612612548       -0.3072968615        -1.127229910    
AX       -0.1106487311         1.384304718        0.3536016683    
AX        0.1220840861        -1.319071855       -0.4307488201    
AX        0.1323522145        0.7945299515       -0.5854822062    
AX         1.909276799       -0.2220935486       -0.5021302739E-01
AX       -0.2459122537        0.1634361209        -1.413544847    
AX        0.2839029123       -0.1135378694         1.340605425    
AX        -1.786779712        0.7158884539       -0.3753842933    
AX        -1.321089038        -1.102142552        0.8368641610    
AX       -0.5401418238       -0.3562846485        0.6023310933    
AX        0.4834454898       -0.6653651125        0.3769169524    
AX        0.2121645757        0.3635287123        0.3848898846    
AX        0.8956148073        0.2993694502E-01   -0.3570007445    
AX       -0.1532666326       -0.2606922779       -0.4164960349    
AX       -0.7653182898        0.5354602948        0.7712436703E-02
    38
Energy=    -172.877736410735    
AX        0.8307267185        0.4632541327        -1.362726523    
AX         1.480906476       -0.9326275031        0.7098846325    
AX       -0.2759297555        -1.421960026        0.6095765193    
AX         1.197007718        -1.024541858       -0.3769453374    
AX        -1.558520211       -0.1923010003        0.2321003422    
AX        0.3344224813E-01     1.230405465        -1.584002738    
AX         1.202871843        0.1406324460        0.7216945212    
AX        -1.309233897       -0.9675741773E-01     1.325485541    
AX       -0.5219372701        0.6504569827         1.109981572    
AX        0.9660121378         1.070357419        0.9898673550E-01
AX       -0.2346632747         1.819389212       -0.6604234041    
AX       -0.9253379619        -1.004242492       -0.1993668622    
AX        0.5743068221        0.9819863789         1.177336424    
AX       -0.5274756346       -0.9031892499        -1.236448586    
AX        -1.131999040         1.556766422       -0.4661673407E-01
AX       -0.8834019568        0.9735037926       -0.9861325800    
AX        -1.541798989        0.8199037582        0.7142531547    
AX        0.7714532926        -1.731894965        0.3750911466    
AX        -1.158621193       -0.9310791782E-01   -0.8078685695    
AX         1.684128036        0.7089817897       -0.6650464313    
AX       -0.4992717681       -0.8650766296         1.560726547    
AX        0.5558225755        -1.186288927         1.328157130    