    38
Energy=    -170.992492629053    
AX        0.8140980267        0.4966385308        -1.379327953    
AX         1.372728239       -0.6519447889         1.115508347    
AX       -0.2758377818        -1.432074911        0.5569003341    
AX         1.113685744        -1.108982778       -0.5753198829    
AX        -1.554400220       -0.1921133431        0.2510717545    
AX       -0.1116896530E-01     1.246446171        -1.594367292    
AX         1.264485827        0.2972291678        0.6183050645    
AX        -1.284255031       -0.1110329416         1.326097827    
AX       -0.4805133312        0.6073170681         1.111963222    
AX        0.9172493168         1.125117393       -0.1052451681E-01
AX       -0.2433687489         1.814763817       -0.6514474620    
AX       -0.9580687115       -0.9984449437       -0.2171250501    
AX        0.5803775935        0.9916529274         1.143437976    
AX       -0.5781248339       -0.8846545178        -1.266129501    
AX        -1.140660084         1.555677652       -0.3221129608E-01
AX       -0.9243845136        0.9885804267       -0.9779563040    
AX        -1.508917610        0.8205341305        0.7453035683    
AX         1.215765220        -1.524376143        0.4411519066    
AX        -1.186063038       -0.7886075478E-01   -0.8028208185    
AX         1.811919669        0.5316052785       -0.3507278450    
AX       -0.4733329824       -0.8545365074         1.545771386    
AX        0.5092818605        -1.278553311         1.289526874    
AX        0.4911389490       -0.5638011598        -1.270889860    
AX         1.618208134       -0.2839278279        -1.122582717    
AX       -0.1252965294         1.365692921        0.3523000957    
AX        0.6779707098E-01    -1.327164209       -0.4780016312    
AX        0.8841569086E-01    0.7784496411       -0.6124845542    
AX         1.723078575       -0.5187110020        0.7046874239E-01
AX       -0.3001939334        0.1836807009        -1.439591824    
AX        0.3674327659       -0.1540930907         1.287111265    
AX        -1.802850458        0.7183463484       -0.3357676636    
AX        -1.302727957        -1.110018078        0.8354301913    
AX       -0.5132698667       -0.3726423082        0.5817092267    
AX        0.5359175387       -0.6915953965        0.3316577029    
AX        0.2332612716        0.3505662627        0.3535878627    
AX        0.8746087274        0.9422416349E-02   -0.4096730646    
AX       -0.1689565436       -0.2710519035       -0.4421677622    
AX       -0.7670590794        0.5268590623        0.1181365055E-01
    38
Energy=    -170.992492629052    
AX        0.8140980134        0.4966385122        -1.379327958    
AX         1.372728221       -0.6519447467         1.115508382    
AX       -0.2758377947        -1.432074910        0.5569003243    
AX         1.113685744        -1.108982789       -0.5753198764    
AX        -1.554400205       -0.1921133395        0.2510717598    
AX       -0.1116897137E-01     1.246446165        -1.594367273    
AX         1.264485828        0.2972291884        0.6183050556    
AX        -1.284255027       -0.1110329499         1.326097831    
AX       -0.4805133403        0.6073170725         1.111963217    
AX        0.9172493190         1.125117387       -0.1052455517E-01
AX       -0.2433687424         1.814763817       -0.6514474571    
AX       -0.9580687177       -0.9984449379       -0.2171250611    
AX        0.5803775772        0.9916529441         1.143437978    
AX       -0.5781248515       -0.8846545057        -1.266129514    
AX        -1.140660066         1.555677651       -0.3221127165E-01
AX       -0.9243845337        0.9885804361       -0.9779563029    
AX        -1.508917612        0.8205341232        0.7453035663    
AX         1.215765299        -1.524376098        0.4411519356    
AX        -1.186063039       -0.7886074941E-01   -0.8028208169    
AX         1.811919695        0.5316052442       -0.3507278456    
AX       -0.4733329915       -0.8545365371         1.545771371    
AX        0.5092818651        -1.278553330         1.289526853    
AX        0.4911389458       -0.5638011704        -1.270889856    
AX         1.618208131       -0.2839278380        -1.122582725    
AX       -0.1252965088         1.365692927        0.3523000891    
AX        0.6779705608E-01    -1.327164201       -0.4780016458    
AX        0.8841568003E-01    0.7784496401       -0.6124845487    
AX         1.723078569       -0.5187110165        0.7046876110E-01
AX       -0.3001939388        0.1836807015        -1.439591824    
AX        0.3674327504       -0.1540930914         1.287111273    
AX        -1.802850454        0.7183463601       -0.3357676548    
AX        -1.302727980        -1.110018090        0.8354301854    
AX       -0.5132698653       -0.3726423122        0.5817092179    
AX        0.5359175483       -0.6915954009        0.3316576999    
AX        0.2332612785        0.3505662658        0.3535878677    
AX        0.8746087435        0.9422424087E-02   -0.4096730645    
AX       -0.1689565506       -0.2710519058       -0.4421677658    
AX       -0.7670590739        0.5268590592        0.1181364938E-01
    38
Energy=    -170.992492629051    
AX        0.8140980048        0.4966385032        -1.379327962    
AX         1.372728214       -0.6519447219         1.115508403    
AX       -0.2758378003        -1.432074910        0.5569003236    
AX         1.113685744        -1.108982793       -0.5753198745    
AX        -1.554400196       -0.1921133378        0.2510717601    
AX       -0.1116897451E-01     1.246446160        -1.594367259    
AX         1.264485827        0.2972292004        0.6183050489    
AX        -1.284255027       -0.1110329544         1.326097831    
AX       -0.4805133473        0.6073170744         1.111963213    
AX        0.9172493199         1.125117385       -0.1052457428E-01
AX       -0.2433687349         1.814763817       -0.6514474522    
AX       -0.9580687198       -0.9984449361       -0.2171250677    
AX        0.5803775664        0.9916529463         1.143437981    
AX       -0.5781248630       -0.8846545018        -1.266129518    
AX        -1.140660057         1.555677650       -0.3221125659E-01
AX       -0.9243845432        0.9885804421       -0.9779562998    
AX        -1.508917612        0.8205341207        0.7453035633    
AX         1.215765341        -1.524376072        0.4411519527    
AX        -1.186063038       -0.7886074575E-01   -0.8028208170    
AX         1.811919707        0.5316052232       -0.3507278507    
AX       -0.4733329999       -0.8545365532         1.545771365    
AX        0.5092818693        -1.278553337         1.289526846    
AX        0.4911389434       -0.5638011758        -1.270889855    
AX         1.618208126       -0.2839278416        -1.122582739    
AX       -0.1252964965         1.365692933        0.3523000859    
AX        0.6779704811E-01    -1.327164198       -0.4780016514    
AX        0.8841567481E-01    0.7784496425       -0.6124845478    
AX         1.723078566       -0.5187110252        0.7046877074E-01
AX       -0.3001939398        0.1836807023        -1.439591824    
AX        0.3674327398       -0.1540930897         1.287111276    
AX        -1.802850450        0.7183463690       -0.3357676516    
AX        -1.302727993        -1.110018099        0.8354301825    
AX       -0.5132698657       -0.3726423173        0.5817092121    
AX        0.5359175527       -0.6915954019        0.3316576982    
AX        0.2332612876        0.3505662657        0.3535878776    
AX        0.8746087558        0.9422429620E-02   -0.4096730664    
AX       -0.1689565557       -0.2710519098       -0.4421677710    
AX       -0.7670590742        0.5268590571        0.1181364811E-01
    38
Energy=    -170.992492629050    
AX        0.8140979737        0.4966384902        -1.379327986    
AX         1.372728192       -0.6519446472         1.115508488    
AX       -0.2758378238        -1.432074918        0.5569003093    
AX         1.113685729        -1.108982807       -0.5753198572    
AX        -1.554400229       -0.1921133410        0.2510717551    
AX       -0.1116897414E-01     1.246446170        -1.594367256    
AX         1.264485851        0.2972292337        0.6183050490    
AX        -1.284255019       -0.1110329759         1.326097835    
AX       -0.4805133488        0.6073170810         1.111963203    
AX        0.9172493507         1.125117365       -0.1052464660E-01
AX       -0.2433687281         1.814763829       -0.6514474539    
AX       -0.9580687343       -0.9984449241       -0.2171250724    
AX        0.5803775866        0.9916529572         1.143437970    
AX       -0.5781248886       -0.8846544840        -1.266129521    
AX        -1.140660047         1.555677647       -0.3221122449E-01
AX       -0.9243845409        0.9885804506       -0.9779562785    
AX        -1.508917625        0.8205340879        0.7453035751    
AX         1.215765502        -1.524375991        0.4411520030    
AX        -1.186063056       -0.7886072762E-01   -0.8028208104    
AX         1.811919771        0.5316051784       -0.3507278419    
AX       -0.4733330052       -0.8545366097         1.545771330    
AX        0.5092818842        -1.278553363         1.289526801    
AX        0.4911389349       -0.5638011784        -1.270889845    
AX         1.618208109       -0.2839278732        -1.122582749    
AX       -0.1252964679         1.365692925        0.3523000600    
AX        0.6779703188E-01    -1.327164188       -0.4780016617    
AX        0.8841566468E-01    0.7784496276       -0.6124845436    
AX         1.723078527       -0.5187110405        0.7046882380E-01
AX       -0.3001939562        0.1836807084        -1.439591834    
AX        0.3674326959       -0.1540931050         1.287111284    
AX        -1.802850459        0.7183463935       -0.3357676448    
AX        -1.302728020        -1.110018103        0.8354301617    
AX       -0.5132698756       -0.3726423234        0.5817092079    
AX        0.5359175669       -0.6915954050        0.3316576899    
AX        0.2332612997        0.3505662480        0.3535878523    
AX        0.8746087384        0.9422445431E-02   -0.4096730554    
AX       -0.1689565368       -0.2710518848       -0.4421677723    
AX       -0.7670590743        0.5268590523        0.1181365847E-01
    38
Energy=    -170.992492629048    
AX        0.8140979413        0.4966384845        -1.379328015    
AX         1.372728172       -0.6519445654         1.115508591    
AX       -0.2758378480        -1.432074931        0.5569002927    
AX         1.113685710        -1.108982816       -0.5753198335    
AX        -1.554400293       -0.1921133457        0.2510717437    
AX       -0.1116896864E-01     1.246446192        -1.594367272    
AX         1.264485884        0.2972292729        0.6183050582    
AX        -1.284255004       -0.1110330015         1.326097836    
AX       -0.4805133329        0.6073170864         1.111963188    
AX        0.9172493957         1.125117330       -0.1052472233E-01
AX       -0.2433687275         1.814763843       -0.6514474623    
AX       -0.9580687480       -0.9984449018       -0.2171250769    
AX        0.5803776307        0.9916529540         1.143437935    
AX       -0.5781249096       -0.8846544654        -1.266129505    
AX        -1.140660050         1.555677644       -0.3221119615E-01
AX       -0.9243845182        0.9885804589       -0.9779562467    
AX        -1.508917646        0.8205340473        0.7453036000    
AX         1.215765683        -1.524375897        0.4411520554    
AX        -1.186063073       -0.7886070424E-01   -0.8028208006    
AX         1.811919837        0.5316051275       -0.3507278232    
AX       -0.4733330045       -0.8545366804         1.545771294    
AX        0.5092819052        -1.278553386         1.289526746    
AX        0.4911389213       -0.5638011746        -1.270889833    
AX         1.618208079       -0.2839279092        -1.122582742    
AX       -0.1252964379         1.365692901        0.3523000236    
AX        0.6779701138E-01    -1.327164178       -0.4780016647    
AX        0.8841565872E-01    0.7784496300       -0.6124845576    
AX         1.723078466       -0.5187110502        0.7046888673E-01
AX       -0.3001939769        0.1836807185        -1.439591849    
AX        0.3674326402       -0.1540931255         1.287111277    
AX        -1.802850477        0.7183464190       -0.3357676388    
AX        -1.302728040        -1.110018099        0.8354301337    
AX       -0.5132698918       -0.3726423253        0.5817091973    
AX        0.5359175782       -0.6915954259        0.3316576864    
AX        0.2332613061        0.3505662434        0.3535878625    
AX        0.8746087614        0.9422464350E-02   -0.4096730727    
AX       -0.1689565443       -0.2710518768       -0.4421677776    
AX       -0.7670590888        0.5268590436        0.1181368155E-01
    38
Energy=    -170.992492629048    
AX        0.8140979368        0.4966384859        -1.379328019    
AX         1.372728168       -0.6519445604         1.115508602    
AX       -0.2758378522        -1.432074933        0.5569002866    
AX         1.113685706        -1.108982819       -0.5753198280    
AX        -1.554400312       -0.1921133477        0.2510717422    
AX       -0.1116896551E-01     1.246446200        -1.594367280    
AX         1.264485892        0.2972292771        0.6183050636    
AX        -1.284255001       -0.1110330055         1.326097839    
AX       -0.4805133258        0.6073170867         1.111963188    
AX        0.9172494051         1.125117324       -0.1052473327E-01
AX       -0.2433687306         1.814763846       -0.6514474665    
AX       -0.9580687504       -0.9984448974       -0.2171250745    
AX        0.5803776460        0.9916529554         1.143437925    
AX       -0.5781249091       -0.8846544610        -1.266129501    
AX        -1.140660055         1.555677642       -0.3221119776E-01
AX       -0.9243845097        0.9885804565       -0.9779562418    
AX        -1.508917650        0.8205340372        0.7453036063    
AX         1.215765704        -1.524375892        0.4411520589    
AX        -1.186063079       -0.7886070117E-01   -0.8028207976    
AX         1.811919847        0.5316051286       -0.3507278161    
AX       -0.4733329992       -0.8545366866         1.545771287    
AX        0.5092819064        -1.278553391         1.289526735    
AX        0.4911389205       -0.5638011716        -1.270889828    
AX         1.618208077       -0.2839279172        -1.122582730    
AX       -0.1252964375         1.365692894        0.3523000174    
AX        0.6779701185E-01    -1.327164175       -0.4780016653    
AX        0.8841565812E-01    0.7784496270       -0.6124845628    
AX         1.723078455       -0.5187110474        0.7046889644E-01
AX       -0.3001939818        0.1836807201        -1.439591853    
AX        0.3674326342       -0.1540931299         1.287111275    
AX        -1.802850483        0.7183464202       -0.3357676385    
AX        -1.302728039        -1.110018092        0.8354301295    
AX       -0.5132698959       -0.3726423235        0.5817092007    
AX        0.5359175795       -0.6915954294        0.3316576869    
AX        0.2332613051        0.3505662415        0.3535878620    
AX        0.8746087574        0.9422465870E-02   -0.4096730742    
AX       -0.1689565400       -0.2710518699       -0.4421677777    
AX       -0.7670590934        0.5268590439        0.1181368590E-01
    38
Energy=    -170.992492629042    
AX        0.8140979474        0.4966384907        -1.379328003    
AX         1.372728171       -0.6519446208         1.115508549    
AX       -0.2758378575        -1.432074925        0.5569002706    
AX         1.113685699        -1.108982827       -0.5753198225    
AX        -1.554400338       -0.1921133543        0.2510717533    
AX       -0.1116895358E-01     1.246446214        -1.594367300    
AX         1.264485899        0.2972292539        0.6183050847    
AX        -1.284254991       -0.1110330040         1.326097861    
AX       -0.4805132905        0.6073170856         1.111963190    
AX        0.9172494078         1.125117333       -0.1052472137E-01
AX       -0.2433687603         1.814763849       -0.6514474880    
AX       -0.9580687480       -0.9984448957       -0.2171250564    
AX        0.5803776777        0.9916529856         1.143437879    
AX       -0.5781248872       -0.8846544481        -1.266129507    
AX        -1.140660079         1.555677640       -0.3221123118E-01
AX       -0.9243844974        0.9885804319       -0.9779562494    
AX        -1.508917642        0.8205340198        0.7453036155    
AX         1.215765640        -1.524375962        0.4411520235    
AX        -1.186063100       -0.7886071355E-01   -0.8028207873    
AX         1.811919838        0.5316051818       -0.3507277773    
AX       -0.4733329732       -0.8545366550         1.545771275    
AX        0.5092818911        -1.278553402         1.289526723    
AX        0.4911389364       -0.5638011550        -1.270889819    
AX         1.618208101       -0.2839279242        -1.122582645    
AX       -0.1252964640         1.365692873        0.3523000144    
AX        0.6779702796E-01    -1.327164167       -0.4780016688    
AX        0.8841565494E-01    0.7784496127       -0.6124845755    
AX         1.723078458       -0.5187110291        0.7046887994E-01
AX       -0.3001939893        0.1836807172        -1.439591855    
AX        0.3674326583       -0.1540931279         1.287111270    
AX        -1.802850503        0.7183464020       -0.3357676361    
AX        -1.302728020        -1.110018057        0.8354301349    
AX       -0.5132699058       -0.3726423203        0.5817092395    
AX        0.5359175836       -0.6915954518        0.3316577028    
AX        0.2332612611        0.3505662843        0.3535878880    
AX        0.8746087544        0.9422456791E-02   -0.4096731025    
AX       -0.1689565165       -0.2710518492       -0.4421677934    
AX       -0.7670590915        0.5268590588        0.1181368267E-01
    38
Energy=    -170.992492629044    
AX        0.8140979319        0.4966385012        -1.379328035    
AX         1.372728166       -0.6519444257         1.115508761    
AX       -0.2758378552        -1.432074959        0.5569002998    
AX         1.113685659        -1.108982796       -0.5753198278    
AX        -1.554400310       -0.1921133310        0.2510717301    
AX       -0.1116899000E-01     1.246446219        -1.594367299    
AX         1.264485893        0.2972292936        0.6183050568    
AX        -1.284254962       -0.1110330237         1.326097806    
AX       -0.4805133350        0.6073170985         1.111963149    
AX        0.9172494534         1.125117278       -0.1052475533E-01
AX       -0.2433687495         1.814763868       -0.6514474747    
AX       -0.9580687733       -0.9984448961       -0.2171250879    
AX        0.5803776319        0.9916529041         1.143437944    
AX       -0.5781249226       -0.8846544698        -1.266129494    
AX        -1.140660025         1.555677657       -0.3221114535E-01
AX       -0.9243845057        0.9885804936       -0.9779562234    
AX        -1.508917675        0.8205340516        0.7453036246    
AX         1.215765937        -1.524375708        0.4411521256    
AX        -1.186063067       -0.7886067573E-01   -0.8028207994    
AX         1.811919884        0.5316050132       -0.3507278114    
AX       -0.4733330267       -0.8545367988         1.545771262    
AX        0.5092819463        -1.278553359         1.289526716    
AX        0.4911388812       -0.5638011744        -1.270889860    
AX         1.618208025       -0.2839279343        -1.122582814    
AX       -0.1252963844         1.365692892        0.3522999951    
AX        0.6779696615E-01    -1.327164205       -0.4780016523    
AX        0.8841566504E-01    0.7784496518       -0.6124845779    
AX         1.723078398       -0.5187110963        0.7046896952E-01
AX       -0.3001939962        0.1836807367        -1.439591846    
AX        0.3674325505       -0.1540931539         1.287111261    
AX        -1.802850469        0.7183464405       -0.3357676236    
AX        -1.302728066        -1.110018113        0.8354300833    
AX       -0.5132698815       -0.3726423345        0.5817091726    
AX        0.5359175788       -0.6915954368        0.3316576820    
AX        0.2332613234        0.3505662057        0.3535878423    
AX        0.8746087616        0.9422440030E-02   -0.4096730901    
AX       -0.1689565634       -0.2710518989       -0.4421677667    
AX       -0.7670590938        0.5268590468        0.1181370448E-01
    38
Energy=    -170.992492629040    
AX        0.8140979424        0.4966385133        -1.379328033    
AX         1.372728174       -0.6519443256         1.115508874    
AX       -0.2758378525        -1.432074978        0.5569003231    
AX         1.113685606        -1.108982773       -0.5753198445    
AX        -1.554400267       -0.1921133133        0.2510717304    
AX       -0.1116902168E-01     1.246446228        -1.594367307    
AX         1.264485881        0.2972292810        0.6183050505    
AX        -1.284254918       -0.1110330344         1.326097773    
AX       -0.4805133416        0.6073171133         1.111963106    
AX        0.9172494863         1.125117248       -0.1052474555E-01
AX       -0.2433687879         1.814763896       -0.6514474884    
AX       -0.9580688000       -0.9984449121       -0.2171250941    
AX        0.5803775907        0.9916528741         1.143437961    
AX       -0.5781249287       -0.8846544841        -1.266129505    
AX        -1.140659994         1.555677673       -0.3221109703E-01
AX       -0.9243845245        0.9885805262       -0.9779562193    
AX        -1.508917686        0.8205340852        0.7453036343    
AX         1.215766095        -1.524375559        0.4411521692    
AX        -1.186063052       -0.7886066020E-01   -0.8028208047    
AX         1.811919910        0.5316049118       -0.3507277905    
AX       -0.4733330599       -0.8545368867         1.545771237    
AX        0.5092819772        -1.278553314         1.289526716    
AX        0.4911388505       -0.5638011739        -1.270889896    
AX         1.618207998       -0.2839279336        -1.122582888    
AX       -0.1252963417         1.365692898        0.3522999810    
AX        0.6779692856E-01    -1.327164246       -0.4780016397    
AX        0.8841566720E-01    0.7784496609       -0.6124845818    
AX         1.723078370       -0.5187111529        0.7046901917E-01
AX       -0.3001940022        0.1836807481        -1.439591824    
AX        0.3674324893       -0.1540931678         1.287111251    
AX        -1.802850447        0.7183464477       -0.3357676042    
AX        -1.302728091        -1.110018136        0.8354300452    
AX       -0.5132698657       -0.3726423650        0.5817091774    
AX        0.5359175809       -0.6915954474        0.3316576823    
AX        0.2332613159        0.3505662011        0.3535878260    
AX        0.8746087522        0.9422403772E-02   -0.4096731244    
AX       -0.1689565581       -0.2710519111       -0.4421677734    
AX       -0.7670590749        0.5268590650        0.1181370404E-01
    38
Energy=    -170.992492629037    
AX        0.8140979428        0.4966385090        -1.379328029    
AX         1.372728180       -0.6519442736         1.115508922    
AX       -0.2758378513        -1.432074987        0.5569003455    
AX         1.113685589        -1.108982764       -0.5753198588    
AX        -1.554400216       -0.1921133043        0.2510717298    
AX       -0.1116903867E-01     1.246446213        -1.594367283    
AX         1.264485868        0.2972292783        0.6183050338    
AX        -1.284254914       -0.1110330367         1.326097759    
AX       -0.4805133627        0.6073171206         1.111963083    
AX        0.9172494868         1.125117254       -0.1052474538E-01
AX       -0.2433687867         1.814763903       -0.6514474814    
AX       -0.9580688078       -0.9984449281       -0.2171251050    
AX        0.5803775442        0.9916528589         1.143437989    
AX       -0.5781249479       -0.8846544951        -1.266129518    
AX        -1.140659972         1.555677682       -0.3221106237E-01
AX       -0.9243845511        0.9885805442       -0.9779562175    
AX        -1.508917678        0.8205341088        0.7453036239    
AX         1.215766163        -1.524375487        0.4411521976    
AX        -1.186063039       -0.7886065512E-01   -0.8028208118    
AX         1.811919918        0.5316048564       -0.3507278007    
AX       -0.4733330905       -0.8545369241         1.545771231    
AX        0.5092819935        -1.278553295         1.289526727    
AX        0.4911388414       -0.5638011790        -1.270889919    
AX         1.618207984       -0.2839279268        -1.122582952    
AX       -0.1252963156         1.365692917        0.3522999805    
AX        0.6779690924E-01    -1.327164267       -0.4780016380    
AX        0.8841566445E-01    0.7784496650       -0.6124845691    
AX         1.723078374       -0.5187111868        0.7046903242E-01
AX       -0.3001939959        0.1836807514        -1.439591810    
AX        0.3674324613       -0.1540931625         1.287111260    
AX        -1.802850424        0.7183464631       -0.3357675970    
AX        -1.302728115        -1.110018164        0.8354300354    
AX       -0.5132698567       -0.3726423877        0.5817091731    
AX        0.5359175839       -0.6915954460        0.3316576797    
AX        0.2332613149        0.3505662008        0.3535878212    
AX        0.8746087536        0.9422394145E-02   -0.4096731353    
AX       -0.1689565520       -0.2710519192       -0.4421677852    
AX       -0.7670590552        0.5268590704        0.1181369510E-01
    38
Energy=    -170.992492629034    
AX        0.8140979357        0.4966385001        -1.379328030    
AX         1.372728187       -0.6519442489         1.115508934    
AX       -0.2758378537        -1.432074991        0.5569003628    
AX         1.113685587        -1.108982766       -0.5753198681    
AX        -1.554400184       -0.1921133031        0.2510717279    
AX       -0.1116904383E-01     1.246446195        -1.594367255    
AX         1.264485862        0.2972292836        0.6183050196    
AX        -1.284254922       -0.1110330394         1.326097751    
AX       -0.4805133807        0.6073171234         1.111963073    
AX        0.9172494763         1.125117267       -0.1052475286E-01
AX       -0.2433687748         1.814763904       -0.6514474684    
AX       -0.9580688106       -0.9984449404       -0.2171251149    
AX        0.5803775142        0.9916528578         1.143438002    
AX       -0.5781249687       -0.8846545028        -1.266129522    
AX        -1.140659965         1.555677684       -0.3221103907E-01
AX       -0.9243845700        0.9885805539       -0.9779562109    
AX        -1.508917669        0.8205341221        0.7453036143    
AX         1.215766181        -1.524375461        0.4411522134    
AX        -1.186063029       -0.7886065129E-01   -0.8028208191    
AX         1.811919930        0.5316048303       -0.3507278120    
AX       -0.4733331158       -0.8545369386         1.545771231    
AX        0.5092820017        -1.278553291         1.289526736    
AX        0.4911388395       -0.5638011852        -1.270889923    
AX         1.618207982       -0.2839279196        -1.122582990    
AX       -0.1252963009         1.365692932        0.3522999779    
AX        0.6779690194E-01    -1.327164277       -0.4780016399    
AX        0.8841566202E-01    0.7784496618       -0.6124845486    
AX         1.723078385       -0.5187112023        0.7046903139E-01
AX       -0.3001939859        0.1836807516        -1.439591800    
AX        0.3674324504       -0.1540931512         1.287111269    
AX        -1.802850409        0.7183464786       -0.3357675944    
AX        -1.302728131        -1.110018187        0.8354300371    
AX       -0.5132698621       -0.3726424123        0.5817091735    
AX        0.5359175862       -0.6915954463        0.3316576740    
AX        0.2332613180        0.3505662131        0.3535878186    
AX        0.8746087591        0.9422402944E-02   -0.4096731396    
AX       -0.1689565414       -0.2710519158       -0.4421678029    
AX       -0.7670590412        0.5268590709        0.1181368481E-01
    38
Energy=    -170.992492629022    
AX        0.8140978950        0.4966385077        -1.379328032    
AX         1.372728169       -0.6519441942         1.115509002    
AX       -0.2758378400        -1.432074982        0.5569003641    
AX         1.113685605        -1.108982749       -0.5753198597    
AX        -1.554400155       -0.1921133035        0.2510717065    
AX       -0.1116905682E-01     1.246446193        -1.594367241    
AX         1.264485849        0.2972293227        0.6183049914    
AX        -1.284254964       -0.1110330482         1.326097748    
AX       -0.4805134367        0.6073171231         1.111963065    
AX        0.9172494548         1.125117267       -0.1052477873E-01
AX       -0.2433686927         1.814763887       -0.6514474310    
AX       -0.9580687806       -0.9984449572       -0.2171251230    
AX        0.5803774675        0.9916527315         1.143438131    
AX       -0.5781249799       -0.8846544996        -1.266129534    
AX        -1.140659905         1.555677692       -0.3221103376E-01
AX       -0.9243845596        0.9885805615       -0.9779562100    
AX        -1.508917673        0.8205341204        0.7453035790    
AX         1.215766281        -1.524375392        0.4411522553    
AX        -1.186063023       -0.7886065469E-01   -0.8028208201    
AX         1.811919875        0.5316048031       -0.3507279367    
AX       -0.4733331396       -0.8545369177         1.545771228    
AX        0.5092820030        -1.278553290         1.289526762    