    38
Energy=    -170.992492629054    
AX        0.8148328646        0.4969250673        -1.378790789    
AX         1.372106793       -0.6523956893         1.116009321    
AX       -0.2762671246        -1.432196231        0.5563753185    
AX         1.113850376        -1.108946688       -0.5750706990    
AX        -1.554544783       -0.1920138419        0.2502515929    
AX       -0.1024697011E-01     1.246880059        -1.594034193    
AX         1.264212177        0.2969248602        0.6190103554    
AX        -1.284922083       -0.1112543222         1.325432961    
AX       -0.4809972364        0.6070670478         1.111890524    
AX        0.9173756190         1.125021280       -0.9765825172E-02
AX       -0.2428513287         1.814966822       -0.6510749388    
AX       -0.9580688430       -0.9982826559       -0.2178693341    
AX        0.5799194357        0.9912799241         1.143993698    
AX       -0.5775944899       -0.8842485249        -1.266655003    
AX        -1.140476442         1.555809366       -0.3235252766E-01
AX       -0.9237946885        0.9889455170       -0.9781444497    
AX        -1.509197253        0.8204945596        0.7447806943    
AX         1.215382691        -1.524627029        0.4413385940    
AX        -1.185674727       -0.7851495230E-01   -0.8034280604    
AX         1.812149994        0.5315050080       -0.3496883021    
AX       -0.4741887036       -0.8549048459         1.545305359    
AX        0.5085069599        -1.278958094         1.289431289    
AX        0.4917060397       -0.5635091643        -1.270800096    
AX         1.618731922       -0.2837976272        -1.121860255    
AX       -0.1253234749         1.365610753        0.3526088799    
AX        0.6789028068E-01    -1.327041732       -0.4783282379    
AX        0.8880219172E-01    0.7786063352       -0.6122294453    
AX         1.722987659       -0.5189159911        0.7117913042E-01
AX       -0.2994628570        0.1841037949        -1.439690018    
AX        0.3667802643       -0.1544820180         1.287250757    
AX        -1.802606942        0.7186319084       -0.3364633198    
AX        -1.303260119        -1.110104275        0.8344851608    
AX       -0.5135973593       -0.3727448091        0.5813544008    
AX        0.5356791254       -0.6917431412        0.3317346831    
AX        0.2331243009        0.3504451259        0.3537982033    
AX        0.8748120404        0.9439298891E-02   -0.4092383833    
AX       -0.1687672479       -0.2709136536       -0.4423247442    
AX       -0.7670080609        0.5269385588        0.1157769856E-01
    38
Energy=    -170.992492629053    
AX        0.8148328653        0.4969250794        -1.378790785    
AX         1.372106777       -0.6523956440         1.116009367    
AX       -0.2762671308        -1.432196235        0.5563753259    
AX         1.113850368        -1.108946686       -0.5750707147    
AX        -1.554544792       -0.1920138490        0.2502515906    
AX       -0.1024698003E-01     1.246880059        -1.594034206    
AX         1.264212181        0.2969248817        0.6190103504    
AX        -1.284922081       -0.1112543392         1.325432954    
AX       -0.4809972505        0.6070670554         1.111890502    
AX        0.9173756338         1.125021264       -0.9765852964E-02
AX       -0.2428513043         1.814966829       -0.6510749405    
AX       -0.9580688458       -0.9982826572       -0.2178693310    
AX        0.5799194314        0.9912799171         1.143993689    
AX       -0.5775944969       -0.8842485223        -1.266654996    
AX        -1.140476421         1.555809366       -0.3235250218E-01
AX       -0.9237946841        0.9889455321       -0.9781444331    
AX        -1.509197275        0.8204945438        0.7447806929    
AX         1.215382759        -1.524626975        0.4413386027    
AX        -1.185674730       -0.7851494667E-01   -0.8034280540    
AX         1.812150018        0.5315049664       -0.3496882971    
AX       -0.4741887105       -0.8549048714         1.545305348    
AX        0.5085069710        -1.278958094         1.289431280    
AX        0.4917060287       -0.5635091541        -1.270800105    
AX         1.618731905       -0.2837976280        -1.121860281    
AX       -0.1253234509         1.365610746        0.3526088708    
AX        0.6789027652E-01    -1.327041734       -0.4783282296    
AX        0.8880219009E-01    0.7786063346       -0.6122294504    
AX         1.722987631       -0.5189160134        0.7117915736E-01
AX       -0.2994628686        0.1841038014        -1.439690009    
AX        0.3667802337       -0.1544820123         1.287250762    
AX        -1.802606935        0.7186319202       -0.3364633143    
AX        -1.303260128        -1.110104287        0.8344851515    
AX       -0.5135973745       -0.3727448333        0.5813544121    
AX        0.5356791303       -0.6917431515        0.3317346914    
AX        0.2331243260        0.3504451403        0.3537982090    
AX        0.8748120515        0.9439294691E-02   -0.4092383973    
AX       -0.1687672494       -0.2709136587       -0.4423247551    
AX       -0.7670080701        0.5269385604        0.1157769882E-01
    38
Energy=    -170.992492629053    
AX        0.8148328620        0.4969250668        -1.378790795    
AX         1.372106801       -0.6523957073         1.116009309    
AX       -0.2762671198        -1.432196228        0.5563753168    
AX         1.113850379        -1.108946688       -0.5750707010    
AX        -1.554544779       -0.1920138437        0.2502515913    
AX       -0.1024697232E-01     1.246880056        -1.594034186    
AX         1.264212174        0.2969248443        0.6190103595    
AX        -1.284922088       -0.1112543192         1.325432962    
AX       -0.4809972327        0.6070670454         1.111890528    
AX        0.9173756208         1.125021287       -0.9765809878E-02
AX       -0.2428513369         1.814966823       -0.6510749454    
AX       -0.9580688418       -0.9982826586       -0.2178693341    
AX        0.5799194347        0.9912799312         1.143993698    
AX       -0.5775944854       -0.8842485279        -1.266655000    
AX        -1.140476448         1.555809367       -0.3235253621E-01
AX       -0.9237946912        0.9889455121       -0.9781444521    
AX        -1.509197248        0.8204945592        0.7447806936    
AX         1.215382662        -1.524627046        0.4413385883    
AX        -1.185674728       -0.7851495463E-01   -0.8034280615    
AX         1.812149997        0.5315050151       -0.3496882896    
AX       -0.4741887015       -0.8549048347         1.545305364    
AX        0.5085069551        -1.278958091         1.289431293    
AX        0.4917060423       -0.5635091614        -1.270800094    
AX         1.618731928       -0.2837976240        -1.121860256    
AX       -0.1253234788         1.365610757        0.3526088730    
AX        0.6789028404E-01    -1.327041729       -0.4783282376    
AX        0.8880219647E-01    0.7786063376       -0.6122294438    
AX         1.722987665       -0.5189159925        0.7117912419E-01
AX       -0.2994628578        0.1841037925        -1.439690019    
AX        0.3667802741       -0.1544820190         1.287250753    
AX        -1.802606947        0.7186319043       -0.3364633185    
AX        -1.303260113        -1.110104275        0.8344851665    
AX       -0.5135973533       -0.3727447975        0.5813543975    
AX        0.5356791251       -0.6917431299        0.3317346770    
AX        0.2331242898        0.3504451180        0.3537981992    
AX        0.8748120314        0.9439301476E-02   -0.4092383758    
AX       -0.1687672413       -0.2709136501       -0.4423247402    
AX       -0.7670080579        0.5269385603        0.1157770023E-01
    38
Energy=    -170.992492629053    
AX        0.8148328545        0.4969250314        -1.378790802    
AX         1.372106831       -0.6523957824         1.116009239    
AX       -0.2762671159        -1.432196212        0.5563752954    
AX         1.113850395        -1.108946692       -0.5750706604    
AX        -1.554544758       -0.1920138265        0.2502515974    
AX       -0.1024695130E-01     1.246880057        -1.594034156    
AX         1.264212153        0.2969248178        0.6190103662    
AX        -1.284922087       -0.1112542919         1.325432973    
AX       -0.4809972046        0.6070670307         1.111890576    
AX        0.9173755906         1.125021313       -0.9765754797E-02
AX       -0.2428513832         1.814966809       -0.6510749419    
AX       -0.9580688423       -0.9982826534       -0.2178693435    
AX        0.5799194377        0.9912799293         1.143993719    
AX       -0.5775944804       -0.8842485305        -1.266655022    
AX        -1.140476486         1.555809367       -0.3235258704E-01
AX       -0.9237946982        0.9889454814       -0.9781444799    
AX        -1.509197202        0.8204945954        0.7447806954    
AX         1.215382562        -1.524627127        0.4413385891    
AX        -1.185674721       -0.7851495853E-01   -0.8034280732    
AX         1.812149943        0.5315050913       -0.3496883107    
AX       -0.4741886918       -0.8549047903         1.545305373    
AX        0.5085069371        -1.278958096         1.289431299    
AX        0.4917060587       -0.5635091889        -1.270800073    
AX         1.618731945       -0.2837976268        -1.121860204    
AX       -0.1253235172         1.365610764        0.3526088966    
AX        0.6789029050E-01    -1.327041730       -0.4783282612    
AX        0.8880219706E-01    0.7786063324       -0.6122294384    
AX         1.722987724       -0.5189159456        0.7117907556E-01
AX       -0.2994628382        0.1841037783        -1.439690037    
AX        0.3667803250       -0.1544820379         1.287250746    
AX        -1.802606959        0.7186318872       -0.3364633277    
AX        -1.303260093        -1.110104244        0.8344851787    
AX       -0.5135973532       -0.3727447950        0.5813544040    
AX        0.5356791252       -0.6917431337        0.3317346680    
AX        0.2331242896        0.3504451399        0.3537982138    
AX        0.8748120270        0.9439312140E-02   -0.4092383710    
AX       -0.1687672455       -0.2709136482       -0.4423247496    
AX       -0.7670080592        0.5269385738        0.1157768865E-01
    38
Energy=    -170.992492629052    
AX        0.8148328601        0.4969250258        -1.378790792    
AX         1.372106838       -0.6523958219         1.116009188    
AX       -0.2762671089        -1.432196214        0.5563752946    
AX         1.113850399        -1.108946690       -0.5750706491    
AX        -1.554544753       -0.1920138194        0.2502516011    
AX       -0.1024694097E-01     1.246880059        -1.594034150    
AX         1.264212148        0.2969248108        0.6190103669    
AX        -1.284922082       -0.1112542735         1.325432979    
AX       -0.4809971924        0.6070670295         1.111890592    
AX        0.9173755700         1.125021316       -0.9765742523E-02
AX       -0.2428514010         1.814966801       -0.6510749313    
AX       -0.9580688368       -0.9982826502       -0.2178693393    
AX        0.5799194426        0.9912799301         1.143993716    
AX       -0.5775944699       -0.8842485290        -1.266655023    
AX        -1.140476504         1.555809361       -0.3235260191E-01
AX       -0.9237947017        0.9889454707       -0.9781444976    
AX        -1.509197189        0.8204946071        0.7447806973    
AX         1.215382497        -1.524627181        0.4413385720    
AX        -1.185674715       -0.7851496401E-01   -0.8034280788    
AX         1.812149920        0.5315051282       -0.3496883226    
AX       -0.4741886869       -0.8549047688         1.545305377    
AX        0.5085069292        -1.278958092         1.289431315    
AX        0.4917060709       -0.5635091938        -1.270800065    
AX         1.618731965       -0.2837976233        -1.121860173    
AX       -0.1253235385         1.365610762        0.3526089108    
AX        0.6789029328E-01    -1.327041725       -0.4783282650    
AX        0.8880219095E-01    0.7786063331       -0.6122294369    
AX         1.722987740       -0.5189159261        0.7117905318E-01
AX       -0.2994628200        0.1841037738        -1.439690042    
AX        0.3667803546       -0.1544820350         1.287250742    
AX        -1.802606961        0.7186318747       -0.3364633375    
AX        -1.303260086        -1.110104229        0.8344851842    
AX       -0.5135973502       -0.3727447905        0.5813544056    
AX        0.5356791192       -0.6917431378        0.3317346669    
AX        0.2331242830        0.3504451401        0.3537982160    
AX        0.8748120246        0.9439313929E-02   -0.4092383645    
AX       -0.1687672466       -0.2709136456       -0.4423247487    
AX       -0.7670080615        0.5269385751        0.1157768474E-01
    38
Energy=    -170.992492629051    
AX        0.8148328769        0.4969250232        -1.378790773    
AX         1.372106839       -0.6523958467         1.116009135    
AX       -0.2762671082        -1.432196220        0.5563753011    
AX         1.113850400        -1.108946690       -0.5750706353    
AX        -1.554544759       -0.1920138114        0.2502516087    
AX       -0.1024692193E-01     1.246880066        -1.594034165    
AX         1.264212156        0.2969248207        0.6190103606    
AX        -1.284922077       -0.1112542589         1.325432983    
AX       -0.4809971861        0.6070670277         1.111890598    
AX        0.9173755403         1.125021319       -0.9765738115E-02
AX       -0.2428514050         1.814966790       -0.6510749105    
AX       -0.9580688313       -0.9982826443       -0.2178693339    
AX        0.5799194540        0.9912799250         1.143993710    
AX       -0.5775944644       -0.8842485251        -1.266655027    
AX        -1.140476519         1.555809355       -0.3235260905E-01
AX       -0.9237946966        0.9889454663       -0.9781445116    
AX        -1.509197179        0.8204946225        0.7447806983    
AX         1.215382447        -1.524627232        0.4413385532    
AX        -1.185674709       -0.7851497221E-01   -0.8034280827    
AX         1.812149886        0.5315051723       -0.3496883539    
AX       -0.4741886819       -0.8549047536         1.545305382    
AX        0.5085069266        -1.278958091         1.289431329    
AX        0.4917060798       -0.5635092058        -1.270800059    
AX         1.618731981       -0.2837976251        -1.121860136    
AX       -0.1253235693         1.365610756        0.3526089416    
AX        0.6789029246E-01    -1.327041728       -0.4783282657    
AX        0.8880218513E-01    0.7786063360       -0.6122294394    
AX         1.722987755       -0.5189158981        0.7117902715E-01
AX       -0.2994627956        0.1841037752        -1.439690038    
AX        0.3667803769       -0.1544820250         1.287250741    
AX        -1.802606954        0.7186318643       -0.3364633471    
AX        -1.303260089        -1.110104218        0.8344851840    
AX       -0.5135973481       -0.3727447880        0.5813544053    
AX        0.5356791098       -0.6917431487        0.3317346736    
AX        0.2331242789        0.3504451362        0.3537982202    
AX        0.8748120273        0.9439309083E-02   -0.4092383599    
AX       -0.1687672525       -0.2709136498       -0.4423247455    
AX       -0.7670080636        0.5269385678        0.1157767908E-01
    38
Energy=    -170.992492629050    
AX        0.8148328828        0.4969250153        -1.378790766    
AX         1.372106835       -0.6523958415         1.116009122    
AX       -0.2762671117        -1.432196225        0.5563753010    
AX         1.113850398        -1.108946689       -0.5750706208    
AX        -1.554544763       -0.1920138047        0.2502516124    
AX       -0.1024690766E-01     1.246880071        -1.594034175    
AX         1.264212163        0.2969248345        0.6190103546    
AX        -1.284922075       -0.1112542540         1.325432984    
AX       -0.4809971837        0.6070670246         1.111890600    
AX        0.9173755254         1.125021321       -0.9765738907E-02
AX       -0.2428513991         1.814966782       -0.6510748964    
AX       -0.9580688314       -0.9982826420       -0.2178693348    
AX        0.5799194588        0.9912799138         1.143993716    
AX       -0.5775944676       -0.8842485216        -1.266655034    
AX        -1.140476521         1.555809356       -0.3235261004E-01
AX       -0.9237946896        0.9889454661       -0.9781445168    
AX        -1.509197173        0.8204946335        0.7447807001    
AX         1.215382459        -1.524627237        0.4413385547    
AX        -1.185674709       -0.7851497582E-01   -0.8034280839    
AX         1.812149864        0.5315051923       -0.3496883849    
AX       -0.4741886829       -0.8549047560         1.545305382    
AX        0.5085069278        -1.278958093         1.289431330    
AX        0.4917060794       -0.5635092186        -1.270800054    
AX         1.618731979       -0.2837976329        -1.121860122    
AX       -0.1253235826         1.365610751        0.3526089641    
AX        0.6789028762E-01    -1.327041731       -0.4783282714    
AX        0.8880218357E-01    0.7786063371       -0.6122294427    
AX         1.722987761       -0.5189158784        0.7117901856E-01
AX       -0.2994627839        0.1841037769        -1.439690035    
AX        0.3667803791       -0.1544820225         1.287250740    
AX        -1.802606947        0.7186318635       -0.3364633503    
AX        -1.303260097        -1.110104213        0.8344851777    
AX       -0.5135973473       -0.3727447865        0.5813544025    
AX        0.5356791046       -0.6917431590        0.3317346785    
AX        0.2331242747        0.3504451317        0.3537982281    
AX        0.8748120312        0.9439304062E-02   -0.4092383616    
AX       -0.1687672606       -0.2709136547       -0.4423247433    
AX       -0.7670080622        0.5269385634        0.1157767688E-01
    38
Energy=    -170.992492629041    
AX        0.8148328756        0.4969250110        -1.378790767    
AX         1.372106835       -0.6523958252         1.116009144    
AX       -0.2762671147        -1.432196222        0.5563752980    
AX         1.113850396        -1.108946693       -0.5750706257    
AX        -1.554544764       -0.1920138070        0.2502516099    
AX       -0.1024691522E-01     1.246880065        -1.594034160    
AX         1.264212176        0.2969248295        0.6190103610    
AX        -1.284922078       -0.1112542648         1.325432983    
AX       -0.4809971673        0.6070670152         1.111890581    
AX        0.9173755466         1.125021338       -0.9765740269E-02
AX       -0.2428513956         1.814966786       -0.6510749059    
AX       -0.9580688402       -0.9982826458       -0.2178693399    
AX        0.5799194493        0.9912799152         1.143993716    
AX       -0.5775944741       -0.8842485233        -1.266655036    
AX        -1.140476515         1.555809361       -0.3235260976E-01
AX       -0.9237946881        0.9889454697       -0.9781445077    
AX        -1.509197179        0.8204946289        0.7447807002    
AX         1.215382483        -1.524627211        0.4413385695    
AX        -1.185674712       -0.7851496887E-01   -0.8034280838    
AX         1.812149871        0.5315051753       -0.3496883736    
AX       -0.4741886835       -0.8549047648         1.545305380    
AX        0.5085069296        -1.278958099         1.289431318    
AX        0.4917060776       -0.5635092156        -1.270800052    
AX         1.618731963       -0.2837976320        -1.121860124    
AX       -0.1253235702         1.365610748        0.3526089532    
AX        0.6789029067E-01    -1.327041736       -0.4783282719    
AX        0.8880217528E-01    0.7786063375       -0.6122294677    
AX         1.722987760       -0.5189158860        0.7117902759E-01
AX       -0.2994627952        0.1841037788        -1.439690036    
AX        0.3667803629       -0.1544820227         1.287250726    
AX        -1.802606954        0.7186318709       -0.3364633455    
AX        -1.303260097        -1.110104220        0.8344851801    
AX       -0.5135973342       -0.3727447694        0.5813544017    
AX        0.5356791075       -0.6917431680        0.3317346866    
AX        0.2331242137        0.3504451396        0.3537983034    
AX        0.8748120736        0.9439293206E-02   -0.4092384185    
AX       -0.1687672636       -0.2709136523       -0.4423247565    
AX       -0.7670080461        0.5269385643        0.1157768276E-01
    38
Energy=    -170.992492629045    
AX        0.8148330036        0.4969251353        -1.378790669    
AX         1.372106862       -0.6523960322         1.116008884    
AX       -0.2762670929        -1.432196217        0.5563754029    
AX         1.113850427        -1.108946709       -0.5750707154    
AX        -1.554544791       -0.1920138501        0.2502516286    
AX       -0.1024690072E-01     1.246880092        -1.594034212    
AX         1.264212167        0.2969247872        0.6190103424    
AX        -1.284922086       -0.1112542438         1.325432986    
AX       -0.4809971966        0.6070670394         1.111890578    
AX        0.9173754874         1.125021346       -0.9765708949E-02
AX       -0.2428514228         1.814966789       -0.6510749028    
AX       -0.9580687849       -0.9982826494       -0.2178692886    
AX        0.5799195099        0.9912800156         1.143993597    
AX       -0.5775943932       -0.8842485449        -1.266654999    
AX        -1.140476584         1.555809332       -0.3235262304E-01
AX       -0.9237946912        0.9889454629       -0.9781445099    
AX        -1.509197211        0.8204946078        0.7447806743    
AX         1.215381974        -1.524627510        0.4413383895    
AX        -1.185674694       -0.7851501897E-01   -0.8034280845    
AX         1.812149850        0.5315052776       -0.3496883098    
AX       -0.4741886394       -0.8549046280         1.545305459    
AX        0.5085069102        -1.278958069         1.289431439    
AX        0.4917061356       -0.5635091411        -1.270800085    
AX         1.618732099       -0.2837975710        -1.121860006    
AX       -0.1253236679         1.365610753        0.3526089536    
AX        0.6789033488E-01    -1.327041758       -0.4783281681    
AX        0.8880218005E-01    0.7786063603       -0.6122294414    
AX         1.722987801       -0.5189158927        0.7117888923E-01
AX       -0.2994627603        0.1841037986        -1.439690024    
AX        0.3667804657       -0.1544819601         1.287250741    
AX        -1.802606960        0.7186318065       -0.3364633702    
AX        -1.303260066        -1.110104226        0.8344852480    
AX       -0.5135973424       -0.3727447778        0.5813544119    
AX        0.5356790757       -0.6917431226        0.3317346974    
AX        0.2331242777        0.3504451538        0.3537982067    
AX        0.8748120544        0.9439314665E-02   -0.4092383370    
AX       -0.1687672443       -0.2709136733       -0.4423247382    
AX       -0.7670080863        0.5269385232        0.1157766364E-01
    38
Energy=    -170.992492629040    
AX        0.8148330647        0.4969252162        -1.378790628    
AX         1.372106883       -0.6523961434         1.116008774    
AX       -0.2762670774        -1.432196203        0.5563754613    
AX         1.113850442        -1.108946726       -0.5750707982    
AX        -1.554544797       -0.1920138907        0.2502516287    
AX       -0.1024692060E-01     1.246880089        -1.594034201    
AX         1.264212156        0.2969247346        0.6190103426    
AX        -1.284922097       -0.1112542516         1.325432987    
AX       -0.4809972024        0.6070670492         1.111890560    
AX        0.9173754995         1.125021370       -0.9765685357E-02
AX       -0.2428514405         1.814966810       -0.6510749366    
AX       -0.9580687633       -0.9982826648       -0.2178692625    
AX        0.5799195268        0.9912801009         1.143993515    
AX       -0.5775943444       -0.8842485673        -1.266654967    
AX        -1.140476614         1.555809321       -0.3235263043E-01
AX       -0.9237947026        0.9889454621       -0.9781444900    
AX        -1.509197245        0.8204945678        0.7447806585    
AX         1.215381683        -1.524627646        0.4413382980    
AX        -1.185674690       -0.7851503533E-01   -0.8034280817    
AX         1.812149879        0.5315052891       -0.3496882101    
AX       -0.4741886138       -0.8549045540         1.545305502    
AX        0.5085068980        -1.278958054         1.289431498    
AX        0.4917061693       -0.5635090681        -1.270800107    
AX         1.618732172       -0.2837975256        -1.121859959    
AX       -0.1253236877         1.365610765        0.3526088984    
AX        0.6789037032E-01    -1.327041770       -0.4783280983    
AX        0.8880218199E-01    0.7786063667       -0.6122294398    
AX         1.722987813       -0.5189159383        0.7117882756E-01
AX       -0.2994627752        0.1841038075        -1.439690025    
AX        0.3667805051       -0.1544819325         1.287250736    
AX        -1.802606985        0.7186317783       -0.3364633721    
AX        -1.303260035        -1.110104244        0.8344853020    
AX       -0.5135973389       -0.3727447707        0.5813544215    
AX        0.5356790647       -0.6917430857        0.3317346990    
AX        0.2331242692        0.3504451749        0.3537982016    
AX        0.8748120710        0.9439328525E-02   -0.4092383366    
AX       -0.1687672230       -0.2709136706       -0.4423247428    
AX       -0.7670080977        0.5269385105        0.1157766120E-01
    38
Energy=    -170.992492629037    
AX        0.8148330762        0.4969252629        -1.378790619    
AX         1.372106904       -0.6523962203         1.116008735    
AX       -0.2762670573        -1.432196189        0.5563754844    
AX         1.113850454        -1.108946731       -0.5750708579    
AX        -1.554544789       -0.1920139174        0.2502516228    
AX       -0.1024695647E-01     1.246880081        -1.594034178    
AX         1.264212135        0.2969246802        0.6190103595    
AX        -1.284922103       -0.1112542536         1.325432987    
AX       -0.4809972025        0.6070670606         1.111890552    
AX        0.9173755267         1.125021370       -0.9765672618E-02
AX       -0.2428514719         1.814966831       -0.6510749729    
AX       -0.9580687501       -0.9982826718       -0.2178692461    
AX        0.5799195258        0.9912801535         1.143993468    
AX       -0.5775943123       -0.8842485813        -1.266654938    
AX        -1.140476631         1.555809312       -0.3235263617E-01
AX       -0.9237947248        0.9889454567       -0.9781444830    
AX        -1.509197268        0.8204945352        0.7447806488    
AX         1.215381510        -1.524627720        0.4413382467    
AX        -1.185674684       -0.7851503729E-01   -0.8034280808    
AX         1.812149926        0.5315052649       -0.3496881089    
AX       -0.4741885998       -0.8549045082         1.545305523    
AX        0.5085068865        -1.278958040         1.289431529    
AX        0.4917061903       -0.5635090148        -1.270800122    
AX         1.618732212       -0.2837974850        -1.121859957    
AX       -0.1253236778         1.365610776        0.3526088380    
AX        0.6789039738E-01    -1.327041762       -0.4783280604    
AX        0.8880217821E-01    0.7786063704       -0.6122294360    
AX         1.722987808       -0.5189159898        0.7117881514E-01
AX       -0.2994627934        0.1841038060        -1.439690033    
AX        0.3667805325       -0.1544819208         1.287250732    
AX        -1.802607011        0.7186317613       -0.3364633729    
AX        -1.303260003        -1.110104252        0.8344853382    
AX       -0.5135973339       -0.3727447657        0.5813544323    
AX        0.5356790696       -0.6917430530        0.3317346930    
AX        0.2331242637        0.3504451905        0.3537981933    
AX        0.8748120772        0.9439344508E-02   -0.4092383373    
AX       -0.1687671992       -0.2709136565       -0.4423247481    
AX       -0.7670081050        0.5269385130        0.1157766257E-01
    38
Energy=    -170.992492629035    
AX        0.8148330635        0.4969252827        -1.378790623    
AX         1.372106922       -0.6523962655         1.116008735    
AX       -0.2762670418        -1.432196179        0.5563754863    
AX         1.113850463        -1.108946732       -0.5750708918    
AX        -1.554544783       -0.1920139286        0.2502516189    
AX       -0.1024699134E-01     1.246880076        -1.594034161    
AX         1.264212119        0.2969246411        0.6190103810    
AX        -1.284922103       -0.1112542528         1.325432985    
AX       -0.4809971988        0.6070670695         1.111890545    
AX        0.9173755493         1.125021361       -0.9765669714E-02
AX       -0.2428515049         1.814966846       -0.6510749987    
AX       -0.9580687457       -0.9982826688       -0.2178692360    
AX        0.5799195194        0.9912801794         1.143993446    
AX       -0.5775942986       -0.8842485861        -1.266654920    
AX        -1.140476640         1.555809303       -0.3235263975E-01
AX       -0.9237947464        0.9889454518       -0.9781444848    
AX        -1.509197279        0.8204945169        0.7447806433    
AX         1.215381424        -1.524627758        0.4413382234    
AX        -1.185674680       -0.7851502997E-01   -0.8034280822    
AX         1.812149969        0.5315052381       -0.3496880291    
AX       -0.4741885913       -0.8549044848         1.545305529    
AX        0.5085068793        -1.278958033         1.289431541    