    38
Energy=    -170.956894617602    
AX        0.8353287358        0.4671069155        -1.348319739    
AX         1.479251265        -1.018497387        0.6910155262    
AX       -0.2841649796        -1.438303784        0.5928978233    
AX         1.186201817        -1.057263242       -0.3974365241    
AX        -1.550682423       -0.2004056699        0.2371012804    
AX        0.4066005089E-01     1.234313833        -1.563380599    
AX         1.215168971        0.4849838462E-01    0.7558879666    
AX        -1.298459136       -0.1163623984         1.327121050    
AX       -0.5077059581        0.6243964498         1.116029712    
AX        0.7799681988         1.535819802       -0.2204694948    
AX       -0.2336256918         1.805621496       -0.6397954310    
AX       -0.9280513776        -1.008865081       -0.2065195718    
AX        0.8707161937         1.128368696        0.8263937955    
AX       -0.5321179483       -0.9023002056        -1.245146954    
AX        -1.144689822         1.546150819       -0.4611556856E-01
AX       -0.8862465392        0.9683541956       -0.9796394560    
AX        -1.528950582        0.8087611350        0.7253887148    
AX        0.7453334637        -1.771559011        0.3464807893    
AX        -1.153523141       -0.9508663919E-01   -0.8042771273    
AX         1.549871506        0.7833140684       -0.4184135765E-02
AX       -0.5002188396       -0.8965650538         1.551366778    
AX        0.5510996223        -1.224286453         1.309727087    
AX        0.5416685701       -0.6089275046        -1.196350384    
AX         1.618604095       -0.3079735992        -1.120096362    
AX       -0.1417184209         1.374724358        0.3747040819    
AX        0.1113516793        -1.331379240       -0.4489419867    
AX        0.1187444057        0.7683602774       -0.5807006793    
AX         1.907896379       -0.2875088048       -0.3818792551E-01
AX       -0.2456062278        0.1605572981        -1.417515743    
AX        0.2832270521       -0.1486640199         1.338222702    
AX        -1.785539265        0.7021238945       -0.3645049831    
AX        -1.320875762        -1.113479614        0.8278265181    
AX       -0.5260219346       -0.3659914901        0.5990944352    
AX        0.4860352574       -0.6895062463        0.3667433568    
AX        0.2506873045        0.3696492575        0.3937312461    
AX        0.9007450075        0.4030589766E-02   -0.3610170056    
AX       -0.1486643553       -0.2713929132       -0.4150426847    
AX       -0.7556971705        0.5241668872        0.1790949254E-01
    38
Energy=    -170.956894617602    
AX        0.8353287494        0.4671068973        -1.348319740    
AX         1.479251268        -1.018497382        0.6910155239    
AX       -0.2841649804        -1.438303788        0.5928978147    
AX         1.186201817        -1.057263252       -0.3974365181    
AX        -1.550682425       -0.2004056647        0.2371012877    
AX        0.4066007239E-01     1.234313824        -1.563380599    
AX         1.215168976        0.4849839285E-01    0.7558879718    
AX        -1.298459133       -0.1163623955         1.327121056    
AX       -0.5077059449        0.6243964460         1.116029718    
AX        0.7799681723         1.535819829       -0.2204694752    
AX       -0.2336256972         1.805621494       -0.6397954277    
AX       -0.9280513810        -1.008865070       -0.2065195714    
AX        0.8707161773         1.128368709        0.8263938050    
AX       -0.5321179550       -0.9023002020        -1.245146957    
AX        -1.144689825         1.546150819       -0.4611556803E-01
AX       -0.8862465295        0.9683541938       -0.9796394606    
AX        -1.528950572        0.8087611369        0.7253887207    
AX        0.7453334646        -1.771559015        0.3464807903    
AX        -1.153523145       -0.9508663479E-01   -0.8042771303    
AX         1.549871473        0.7833140815       -0.4184136792E-02
AX       -0.5002188347       -0.8965650603         1.551366768    
AX        0.5510996268        -1.224286459         1.309727082    
AX        0.5416685701       -0.6089275186        -1.196350382    
AX         1.618604096       -0.3079736269        -1.120096372    
AX       -0.1417184373         1.374724359        0.3747040945    
AX        0.1113516759        -1.331379236       -0.4489419858    
AX        0.1187444176        0.7683602771       -0.5807006778    
AX         1.907896374       -0.2875087981       -0.3818793423E-01
AX       -0.2456062214        0.1605572904        -1.417515755    
AX        0.2832270583       -0.1486640223         1.338222696    
AX        -1.785539262        0.7021238994       -0.3645049830    
AX        -1.320875764        -1.113479615        0.8278265195    
AX       -0.5260219319       -0.3659914842        0.5990944320    
AX        0.4860352547       -0.6895062443        0.3667433564    
AX        0.2506873070        0.3696492638        0.3937312423    
AX        0.9007450083        0.4030578394E-02   -0.3610170100    
AX       -0.1486643564       -0.2713929092       -0.4150426873    
AX       -0.7556971630        0.5241668881        0.1790949218E-01
    38
Energy=    -170.956894617594    
AX        0.8353287400        0.4671068659        -1.348319774    
AX         1.479251288        -1.018497394        0.6910155137    
AX       -0.2841649722        -1.438303794        0.5928978287    
AX         1.186201822        -1.057263265       -0.3974365288    
AX        -1.550682417       -0.2004056509        0.2371012894    
AX        0.4066007498E-01     1.234313835        -1.563380596    
AX         1.215168976        0.4849838059E-01    0.7558879762    
AX        -1.298459128       -0.1163623853         1.327121065    
AX       -0.5077059129        0.6243964420         1.116029707    
AX        0.7799681353         1.535819882       -0.2204694080    
AX       -0.2336256948         1.805621494       -0.6397954361    
AX       -0.9280513636        -1.008865067       -0.2065195712    
AX        0.8707161442         1.128368696        0.8263938857    
AX       -0.5321179568       -0.9023002039        -1.245146959    
AX        -1.144689828         1.546150825       -0.4611559805E-01
AX       -0.8862465189        0.9683541903       -0.9796394668    
AX        -1.528950541        0.8087611566        0.7253887147    
AX        0.7453334625        -1.771559030        0.3464807888    
AX        -1.153523158       -0.9508664342E-01   -0.8042771355    
AX         1.549871401        0.7833140963       -0.4184118861E-02
AX       -0.5002188310       -0.8965650596         1.551366787    
AX        0.5510996374        -1.224286457         1.309727101    
AX        0.5416685671       -0.6089275468        -1.196350395    
AX         1.618604085       -0.3079736591        -1.120096386    
AX       -0.1417184654         1.374724353        0.3747040902    
AX        0.1113516710        -1.331379227       -0.4489419816    
AX        0.1187444602        0.7683603310       -0.5807006858    
AX         1.907896361       -0.2875087869       -0.3818794226E-01
AX       -0.2456062245        0.1605572967        -1.417515767    
AX        0.2832270604       -0.1486640060         1.338222687    
AX        -1.785539255        0.7021238965       -0.3645049872    
AX        -1.320875766        -1.113479616        0.8278265133    
AX       -0.5260218631       -0.3659914597        0.5990943887    
AX        0.4860352083       -0.6895062077        0.3667433264    
AX        0.2506872777        0.3696492365        0.3937312489    
AX        0.9007450035        0.4030541575E-02   -0.3610170410    
AX       -0.1486643357       -0.2713929454       -0.4150426371    
AX       -0.7556971435        0.5241668869        0.1790950275E-01
    38
Energy=    -170.956894617597    
AX        0.8353288109        0.4671070931        -1.348319542    
AX         1.479251261        -1.018497383        0.6910155569    
AX       -0.2841649858        -1.438303800        0.5928977434    
AX         1.186201839        -1.057263210       -0.3974365428    
AX        -1.550682468       -0.2004057091        0.2371012786    
AX        0.4066002057E-01     1.234313772        -1.563380594    
AX         1.215168938        0.4849841044E-01    0.7558879910    
AX        -1.298459153       -0.1163623988         1.327121069    
AX       -0.5077060646        0.6243965262         1.116029680    
AX        0.7799683223         1.535819564       -0.2204698394    
AX       -0.2336256911         1.805621460       -0.6397954481    
AX       -0.9280514264        -1.008865100       -0.2065195817    
AX        0.8707163928         1.128368764        0.8263934930    
AX       -0.5321179560       -0.9023001933        -1.245146945    
AX        -1.144689786         1.546150796       -0.4611545198E-01
AX       -0.8862466035        0.9683542166       -0.9796394492    
AX        -1.528950746        0.8087610776        0.7253887308    
AX        0.7453334898        -1.771558992        0.3464807536    
AX        -1.153523136       -0.9508660806E-01   -0.8042771193    
AX         1.549871780        0.7833139938       -0.4184202334E-02
AX       -0.5002188333       -0.8965651356         1.551366757    
AX        0.5510996165        -1.224286495         1.309727075    
AX        0.5416686009       -0.6089273685        -1.196350359    
AX         1.618604122       -0.3079734325        -1.120096261    
AX       -0.1417182926         1.374724399        0.3747040361    
AX        0.1113517222        -1.331379206       -0.4489420340    
AX        0.1187442604        0.7683601898       -0.5807006480    
AX         1.907896386       -0.2875088635       -0.3818784479E-01
AX       -0.2456062234        0.1605572812        -1.417515764    
AX        0.2832269714       -0.1486640404         1.338222720    
AX        -1.785539300        0.7021239090       -0.3645049696    
AX        -1.320875776        -1.113479632        0.8278265658    
AX       -0.5260219748       -0.3659914977        0.5990944408    
AX        0.4860352509       -0.6895062441        0.3667433829    
AX        0.2506872419        0.3696492577        0.3937313037    
AX        0.9007450009        0.4030640372E-02   -0.3610168856    
AX       -0.1486643915       -0.2713929166       -0.4150426430    
AX       -0.7556972185        0.5241668760        0.1790954711E-01
    38
Energy=    -170.956894617593    
AX        0.8353288218        0.4671072201        -1.348319444    
AX         1.479251249        -1.018497400        0.6910155746    
AX       -0.2841649792        -1.438303810        0.5928977418    
AX         1.186201846        -1.057263174       -0.3974365624    
AX        -1.550682475       -0.2004057365        0.2371012643    
AX        0.4065995824E-01     1.234313781        -1.563380576    
AX         1.215168909        0.4849840394E-01    0.7558879879    
AX        -1.298459161       -0.1163624025         1.327121069    
AX       -0.5077061346        0.6243965790         1.116029644    
AX        0.7799684348         1.535819426       -0.2204700559    
AX       -0.2336256857         1.805621462       -0.6397954734    
AX       -0.9280514244        -1.008865141       -0.2065195854    
AX        0.8707165223         1.128368758        0.8263933322    
AX       -0.5321179383       -0.9023001833        -1.245146942    
AX        -1.144689755         1.546150786       -0.4611540353E-01
AX       -0.8862466526        0.9683542260       -0.9796394297    
AX        -1.528950845        0.8087610503        0.7253887189    
AX        0.7453334997        -1.771558984        0.3464807209    
AX        -1.153523134       -0.9508661614E-01   -0.8042771070    
AX         1.549871948        0.7833139309       -0.4184264892E-02
AX       -0.5002188534       -0.8965651649         1.551366780    
AX        0.5510996045        -1.224286511         1.309727091    
AX        0.5416686153       -0.6089272789        -1.196350354    
AX         1.618604131       -0.3079732970        -1.120096185    
AX       -0.1417181902         1.374724406        0.3747039624    
AX        0.1113517492        -1.331379195       -0.4489420584    
AX        0.1187441820        0.7683601659       -0.5807006195    
AX         1.907896391       -0.2875089018       -0.3818778263E-01
AX       -0.2456062319        0.1605572985        -1.417515739    
AX        0.2832269175       -0.1486640437         1.338222753    
AX        -1.785539316        0.7021239066       -0.3645049703    
AX        -1.320875778        -1.113479641        0.8278265683    
AX       -0.5260219880       -0.3659915161        0.5990944559    
AX        0.4860352410       -0.6895062532        0.3667433983    
AX        0.2506871971        0.3696492452        0.3937313465    
AX        0.9007449831        0.4030671484E-02   -0.3610168275    
AX       -0.1486644036       -0.2713929366       -0.4150426083    
AX       -0.7556972526        0.5241668691        0.1790957903E-01
    38
Energy=    -170.956894617588    
AX        0.8353287870        0.4671073279        -1.348319400    
AX         1.479251228        -1.018497415        0.6910155934    
AX       -0.2841649738        -1.438303794        0.5928977688    
AX         1.186201837        -1.057263111       -0.3974365751    
AX        -1.550682482       -0.2004057623        0.2371012389    
AX        0.4065987113E-01     1.234313814        -1.563380573    
AX         1.215168895        0.4849838465E-01    0.7558879711    
AX        -1.298459174       -0.1163624248         1.327121055    
AX       -0.5077062003        0.6243966024         1.116029615    
AX        0.7799685657         1.535819248       -0.2204702230    
AX       -0.2336256665         1.805621463       -0.6397954889    
AX       -0.9280514115        -1.008865181       -0.2065195893    
AX        0.8707166227         1.128368723        0.8263932277    
AX       -0.5321179056       -0.9023001876        -1.245146933    
AX        -1.144689733         1.546150783       -0.4611537992E-01
AX       -0.8862467088        0.9683542333       -0.9796394077    
AX        -1.528950921        0.8087610246        0.7253886995    
AX        0.7453334977        -1.771558968        0.3464806996    
AX        -1.153523127       -0.9508663644E-01   -0.8042770907    
AX         1.549872147        0.7833138628       -0.4184282458E-02
AX       -0.5002188811       -0.8965651597         1.551366814    
AX        0.5510995800        -1.224286497         1.309727101    
AX        0.5416686221       -0.6089271979        -1.196350340    
AX         1.618604139       -0.3079731601        -1.120096124    
AX       -0.1417180998         1.374724396        0.3747038956    
AX        0.1113517562        -1.331379204       -0.4489420644    
AX        0.1187441058        0.7683601545       -0.5807006107    
AX         1.907896423       -0.2875089379       -0.3818773378E-01
AX       -0.2456062577        0.1605573251        -1.417515700    
AX        0.2832268843       -0.1486640383         1.338222786    
AX        -1.785539334        0.7021238947       -0.3645049691    
AX        -1.320875774        -1.113479643        0.8278265498    
AX       -0.5260220046       -0.3659915399        0.5990944762    
AX        0.4860352392       -0.6895062578        0.3667433989    
AX        0.2506871704        0.3696492379        0.3937313780    
AX        0.9007449826        0.4030733766E-02   -0.3610167949    
AX       -0.1486644004       -0.2713929643       -0.4150425889    
AX       -0.7556972978        0.5241668715        0.1790960102E-01
    38
Energy=    -170.956894617585    
AX        0.8353287675        0.4671073602        -1.348319398    
AX         1.479251221        -1.018497418        0.6910155983    
AX       -0.2841649733        -1.438303778        0.5928977802    
AX         1.186201832        -1.057263083       -0.3974365809    
AX        -1.550682484       -0.2004057692        0.2371012262    
AX        0.4065983617E-01     1.234313826        -1.563380576    
AX         1.215168893        0.4849837673E-01    0.7558879643    
AX        -1.298459180       -0.1163624365         1.327121048    
AX       -0.5077062238        0.6243966039         1.116029607    
AX        0.7799686134         1.535819170       -0.2204702683    
AX       -0.2336256564         1.805621457       -0.6397954908    
AX       -0.9280514088        -1.008865196       -0.2065195913    
AX        0.8707166499         1.128368705        0.8263932081    
AX       -0.5321178940       -0.9023001944        -1.245146927    
AX        -1.144689728         1.546150782       -0.4611537395E-01
AX       -0.8862467310        0.9683542363       -0.9796394010    
AX        -1.528950943        0.8087610137        0.7253886899    
AX        0.7453334958        -1.771558958        0.3464806935    
AX        -1.153523124       -0.9508664277E-01   -0.8042770851    
AX         1.549872226        0.7833138390       -0.4184270027E-02
AX       -0.5002188885       -0.8965651474         1.551366825    
AX        0.5510995704        -1.224286487         1.309727102    
AX        0.5416686205       -0.6089271707        -1.196350333    
AX         1.618604140       -0.3079731158        -1.120096106    
AX       -0.1417180718         1.374724390        0.3747038783    
AX        0.1113517546        -1.331379208       -0.4489420647    
AX        0.1187440815        0.7683601534       -0.5807006179    
AX         1.907896440       -0.2875089483       -0.3818771909E-01
AX       -0.2456062698        0.1605573335        -1.417515685    
AX        0.2832268775       -0.1486640344         1.338222796    
AX        -1.785539339        0.7021238891       -0.3645049678    
AX        -1.320875771        -1.113479639        0.8278265428    
AX       -0.5260220137       -0.3659915529        0.5990944868    
AX        0.4860352410       -0.6895062578        0.3667433927    
AX        0.2506871690        0.3696492426        0.3937313883    
AX        0.9007449869        0.4030761830E-02   -0.3610167900    
AX       -0.1486643922       -0.2713929853       -0.4150425878    
AX       -0.7556973245        0.5241668828        0.1790960676E-01
    38
Energy=    -170.956894617577    
AX        0.8353287699        0.4671073503        -1.348319407    
AX         1.479251225        -1.018497407        0.6910155934    
AX       -0.2841649756        -1.438303756        0.5928977762    
AX         1.186201834        -1.057263078       -0.3974365862    
AX        -1.550682478       -0.2004057569        0.2371012182    
AX        0.4065983822E-01     1.234313815        -1.563380574    
AX         1.215168891        0.4849838493E-01    0.7558879647    
AX        -1.298459178       -0.1163624395         1.327121047    
AX       -0.5077062270        0.6243965989         1.116029611    
AX        0.7799686023         1.535819145       -0.2204702502    
AX       -0.2336256567         1.805621432       -0.6397954858    
AX       -0.9280514140        -1.008865200       -0.2065195928    
AX        0.8707166370         1.128368695        0.8263932360    
AX       -0.5321179003       -0.9023001999        -1.245146919    
AX        -1.144689734         1.546150775       -0.4611536757E-01
AX       -0.8862467339        0.9683542354       -0.9796394024    
AX        -1.528950931        0.8087610067        0.7253886777    
AX        0.7453335014        -1.771558948        0.3464806856    
AX        -1.153523128       -0.9508663579E-01   -0.8042770874    
AX         1.549872230        0.7833138455       -0.4184249058E-02
AX       -0.5002188810       -0.8965651298         1.551366815    
AX        0.5510995726        -1.224286490         1.309727098    
AX        0.5416686075       -0.6089271719        -1.196350326    
AX         1.618604137       -0.3079731384        -1.120096108    
AX       -0.1417180776         1.374724389        0.3747038930    
AX        0.1113517495        -1.331379195       -0.4489420693    
AX        0.1187440995        0.7683601704       -0.5807006539    
AX         1.907896441       -0.2875089370       -0.3818771874E-01
AX       -0.2456062674        0.1605573289        -1.417515686    
AX        0.2832268846       -0.1486640347         1.338222794    
AX        -1.785539328        0.7021238914       -0.3645049664    
AX        -1.320875763        -1.113479625        0.8278265440    
AX       -0.5260220285       -0.3659915788        0.5990945118    
AX        0.4860352433       -0.6895062573        0.3667433787    
AX        0.2506872029        0.3696492681        0.3937314081    
AX        0.9007449848        0.4030755327E-02   -0.3610168023    
AX       -0.1486643673       -0.2713930392       -0.4150426101    
AX       -0.7556973822        0.5241669303        0.1790960833E-01
    38
Energy=    -170.956894617578    
AX        0.8353286737        0.4671074727        -1.348319356    
AX         1.479251180        -1.018497447        0.6910156661    
AX       -0.2841649718        -1.438303819        0.5928978231    
AX         1.186201802        -1.057262996       -0.3974365371    
AX        -1.550682521       -0.2004058250        0.2371012230    
AX        0.4065972005E-01     1.234313882        -1.563380575    
AX         1.215168904        0.4849835995E-01    0.7558879143    
AX        -1.298459237       -0.1163624638         1.327121009    
AX       -0.5077062746        0.6243966155         1.116029594    
AX        0.7799687635         1.535818969       -0.2204704596    
AX       -0.2336256082         1.805621525       -0.6397954881    
AX       -0.9280513579        -1.008865205       -0.2065195933    
AX        0.8707167951         1.128368662        0.8263929993    
AX       -0.5321178211       -0.9023001778        -1.245146944    
AX        -1.144689682         1.546150763       -0.4611537199E-01
AX       -0.8862467917        0.9683542515       -0.9796393722    
AX        -1.528951015        0.8087610055        0.7253886931    
AX        0.7453334848        -1.771558968        0.3464807277    
AX        -1.153523131       -0.9508667802E-01   -0.8042770674    
AX         1.549872538        0.7833137691       -0.4184334649E-02
AX       -0.5002189616       -0.8965651581         1.551366851    
AX        0.5510995193        -1.224286453         1.309727128    
AX        0.5416686637       -0.6089270778        -1.196350287    
AX         1.618604158       -0.3079728943        -1.120096054    
AX       -0.1417179839         1.374724371        0.3747038119    
AX        0.1113517660        -1.331379221       -0.4489420412    
AX        0.1187439502        0.7683601455       -0.5807005911    
AX         1.907896499       -0.2875090460       -0.3818769567E-01
AX       -0.2456063345        0.1605573614        -1.417515689    
AX        0.2832268506       -0.1486640244         1.338222818    
AX        -1.785539374        0.7021238696       -0.3645049540    
AX        -1.320875786        -1.113479706        0.8278264993    
AX       -0.5260220331       -0.3659915704        0.5990944953    
AX        0.4860352264       -0.6895062581        0.3667434153    
AX        0.2506871170        0.3696492104        0.3937314159    
AX        0.9007450172        0.4030879369E-02   -0.3610167305    
AX       -0.1486644032       -0.2713929478       -0.4150425800    
AX       -0.7556973439        0.5241668239        0.1790963608E-01
    38
Energy=    -170.956894617570    
AX        0.8353286250        0.4671075363        -1.348319279    
AX         1.479251148        -1.018497459        0.6910157519    
AX       -0.2841649761        -1.438303912        0.5928978377    
AX         1.186201786        -1.057262960       -0.3974364578    
AX        -1.550682558       -0.2004058631        0.2371012485    
AX        0.4065967853E-01     1.234313904        -1.563380534    
AX         1.215168928        0.4849838550E-01    0.7558878586    
AX        -1.298459301       -0.1163624646         1.327120980    
AX       -0.5077062886        0.6243966383         1.116029611    
AX        0.7799688083         1.535818919       -0.2204706182    
AX       -0.2336255828         1.805621619       -0.6397954756    
AX       -0.9280512927        -1.008865181       -0.2065195911    
AX        0.8707169319         1.128368659        0.8263927425    
AX       -0.5321177608       -0.9023001274        -1.245146983    
AX        -1.144689628         1.546150720       -0.4611536001E-01
AX       -0.8862468090        0.9683542615       -0.9796393469    
AX        -1.528951039        0.8087610120        0.7253887055    
AX        0.7453334915        -1.771559011        0.3464807765    
AX        -1.153523174       -0.9508669440E-01   -0.8042770635    
AX         1.549872733        0.7833137583       -0.4184500585E-02
AX       -0.5002190406       -0.8965652037         1.551366831    
AX        0.5510994764        -1.224286468         1.309727170    
AX        0.5416687188       -0.6089270231        -1.196350226    
AX         1.618604178       -0.3079727430        -1.120096021    
AX       -0.1417179380         1.374724366        0.3747037785    
AX        0.1113517870        -1.331379188       -0.4489420204    
AX        0.1187438724        0.7683601683       -0.5807005688    
AX         1.907896520       -0.2875091414       -0.3818769674E-01
AX       -0.2456063730        0.1605573766        -1.417515746    
AX        0.2832268341       -0.1486640417         1.338222830    
AX        -1.785539382        0.7021238654       -0.3645049357    
AX        -1.320875814        -1.113479802        0.8278264572    
AX       -0.5260220555       -0.3659916135        0.5990945214    
AX        0.4860351850       -0.6895062643        0.3667434521    
AX        0.2506870876        0.3696491857        0.3937314441    
AX        0.9007450182        0.4030929362E-02   -0.3610166592    
AX       -0.1486643951       -0.2713929232       -0.4150425904    
AX       -0.7556974002        0.5241667827        0.1790967730E-01
    38
Energy=    -170.956894617567    
AX        0.8353286305        0.4671075479        -1.348319249    
AX         1.479251142        -1.018497463        0.6910157708    
AX       -0.2841649743        -1.438303947        0.5928978371    
AX         1.186201786        -1.057262965       -0.3974364368    
AX        -1.550682563       -0.2004058699        0.2371012609    
AX        0.4065968416E-01     1.234313905        -1.563380518    
AX         1.215168930        0.4849839677E-01    0.7558878498    
AX        -1.298459311       -0.1163624570         1.327120979    
AX       -0.5077062852        0.6243966520         1.116029614    
AX        0.7799688014         1.535818944       -0.2204706563    
AX       -0.2336255851         1.805621647       -0.6397954761    
AX       -0.9280512753        -1.008865174       -0.2065195888    
AX        0.8707169620         1.128368666        0.8263926760    
AX       -0.5321177513       -0.9023001075        -1.245146998    
AX        -1.144689613         1.546150710       -0.4611535431E-01
AX       -0.8862468052        0.9683542613       -0.9796393415    
AX        -1.528951044        0.8087610171        0.7253887105    
AX        0.7453334967        -1.771559028        0.3464807823    
AX        -1.153523189       -0.9508669827E-01   -0.8042770636    
AX         1.549872740        0.7833137621       -0.4184563095E-02
AX       -0.5002190594       -0.8965652268         1.551366824    
AX        0.5510994715        -1.224286484         1.309727182    
AX        0.5416687331       -0.6089270169        -1.196350215    
AX         1.618604184       -0.3079727220        -1.120096014    
AX       -0.1417179304         1.374724368        0.3747037687    
AX        0.1113517955        -1.331379177       -0.4489420190    
AX        0.1187438631        0.7683601731       -0.5807005529    
AX         1.907896514       -0.2875091592       -0.3818769725E-01
AX       -0.2456063740        0.1605573777        -1.417515763    
AX        0.2832268279       -0.1486640486         1.338222832    
AX        -1.785539382        0.7021238693       -0.3645049344    
AX        -1.320875822        -1.113479827        0.8278264478    
AX       -0.5260220567       -0.3659916188        0.5990945271    
AX        0.4860351717       -0.6895062663        0.3667434663    
AX        0.2506870810        0.3696491741        0.3937314522    
AX        0.9007450073        0.4030923854E-02   -0.3610166382    
AX       -0.1486643985       -0.2713929089       -0.4150425896    
AX       -0.7556974033        0.5241667683        0.1790968792E-01
    38
Energy=    -170.956894617528    
AX        0.8353288652        0.4671076049        -1.348319044    
AX         1.479251101        -1.018497424        0.6910158066    
AX       -0.2841649741        -1.438304079        0.5928978476    
AX         1.186201797        -1.057263063       -0.3974363627    
AX        -1.550682508       -0.2004058632        0.2371012887    
AX        0.4065985971E-01     1.234313923        -1.563380332    
AX         1.215168913        0.4849853772E-01    0.7558878205    
AX        -1.298459321       -0.1163624138         1.327121051    
AX       -0.5077062861        0.6243967296         1.116029646    
AX        0.7799687067         1.535819370       -0.2204709570    
AX       -0.2336257269         1.805621765       -0.6397954830    
AX       -0.9280512300        -1.008865217       -0.2065195782    
AX        0.8707170559         1.128368791        0.8263923352    
AX       -0.5321177632       -0.9022999803        -1.245147084    
AX        -1.144689586         1.546150683       -0.4611521150E-01
AX       -0.8862467250        0.9683542413       -0.9796392842    
AX        -1.528951073        0.8087609501        0.7253887010    
AX        0.7453335305        -1.771559114        0.3464806843    
AX        -1.153523255       -0.9508671654E-01   -0.8042770642    
AX         1.549872415        0.7833138364       -0.4185085281E-02
AX       -0.5002191494       -0.8965653236         1.551366814    
AX        0.5510994526        -1.224286705         1.309727228    