    38
Energy=    -170.992492629053    
AX        0.8184903594        0.4981721192        -1.376171889    
AX         1.368769337       -0.6564180072         1.117747671    
AX       -0.2795656314        -1.432774076        0.5532310299    
AX         1.113425763        -1.109571226       -0.5746881749    
AX        -1.555354579       -0.1901532448        0.2466141495    
AX       -0.5020435465E-02     1.249732606        -1.591823818    
AX         1.263334167        0.2939456644        0.6222166047    
AX        -1.287894134       -0.1117099692         1.322506817    
AX       -0.4824561482        0.6057975009         1.111950855    
AX        0.9190579223         1.123674752       -0.5813842280E-02
AX       -0.2387838985         1.816482471       -0.6483468899    
AX       -0.9590805486       -0.9964704865       -0.2216805823    
AX        0.5789573815        0.9883783551         1.146987628    
AX       -0.5762138614       -0.8811320598        -1.269452512    
AX        -1.138101975         1.557554642       -0.3199131046E-01
AX       -0.9202533256        0.9920563706       -0.9783325054    
AX        -1.509558169        0.8214038790        0.7430449941    
AX         1.212186732        -1.527212213        0.4411903325    
AX        -1.184082541       -0.7532410366E-01   -0.8060772912    
AX         1.813672251        0.5294384738       -0.3448986524    
AX       -0.4787302827       -0.8569530627         1.542768496    
AX        0.5038774912        -1.282006885         1.288220496    
AX        0.4935664761       -0.5619724099        -1.270759388    
AX         1.620686444       -0.2841989510        -1.118932929    
AX       -0.1240504348         1.365164616        0.3547798585    
AX        0.6694122575E-01    -1.326286474       -0.4805516497    
AX        0.9125267421E-01    0.7795635396       -0.6106489631    
AX         1.722063046       -0.5215973764        0.7390316620E-01
AX       -0.2961353083        0.1871131625        -1.439990329    
AX        0.3638196195       -0.1573196780         1.287747160    
AX        -1.800823844        0.7219036035       -0.3389983758    
AX        -1.306668601        -1.109655128        0.8297388541    
AX       -0.5153804449       -0.3730179463        0.5795985358    
AX        0.5339500727       -0.6931271277        0.3316334838    
AX        0.2328915260        0.3494678581        0.3549163986    
AX        0.8756912473        0.8870829827E-02   -0.4073664336    
AX       -0.1682291870       -0.2698743255       -0.4431642652    
AX       -0.7662503869        0.5280543068        0.1089327054E-01
    38
Energy=    -170.992492629053    
AX        0.8184903635        0.4981721145        -1.376171891    
AX         1.368769336       -0.6564179994         1.117747673    
AX       -0.2795656306        -1.432774076        0.5532310263    
AX         1.113425761        -1.109571231       -0.5746881711    
AX        -1.555354579       -0.1901532456        0.2466141489    
AX       -0.5020424049E-02     1.249732599        -1.591823810    
AX         1.263334172        0.2939456720        0.6222166011    
AX        -1.287894140       -0.1117099673         1.322506811    
AX       -0.4824561482        0.6057974985         1.111950854    
AX        0.9190579127         1.123674755       -0.5813830612E-02
AX       -0.2387838908         1.816482478       -0.6483468833    
AX       -0.9590805482       -0.9964704860       -0.2216805792    
AX        0.5789573813        0.9883783533         1.146987622    
AX       -0.5762138651       -0.8811320626        -1.269452505    
AX        -1.138101977         1.557554649       -0.3199131534E-01
AX       -0.9202533248        0.9920563796       -0.9783325065    
AX        -1.509558168        0.8214038875        0.7430449953    
AX         1.212186752        -1.527212204        0.4411903444    
AX        -1.184082539       -0.7532409877E-01   -0.8060772891    
AX         1.813672240        0.5294384781       -0.3448986605    
AX       -0.4787302838       -0.8569530680         1.542768485    
AX        0.5038774950        -1.282006888         1.288220493    
AX        0.4935664747       -0.5619724152        -1.270759388    
AX         1.620686444       -0.2841989541        -1.118932930    
AX       -0.1240504431         1.365164611        0.3547798614    
AX        0.6694122475E-01    -1.326286478       -0.4805516534    
AX        0.9125266820E-01    0.7795635376       -0.6106489625    
AX         1.722063045       -0.5215973768        0.7390316303E-01
AX       -0.2961353105        0.1871131599        -1.439990328    
AX        0.3638196258       -0.1573196832         1.287747160    
AX        -1.800823845        0.7219036046       -0.3389983699    
AX        -1.306668602        -1.109655128        0.8297388516    
AX       -0.5153804491       -0.3730179472        0.5795985360    
AX        0.5339500726       -0.6931271331        0.3316334783    
AX        0.2328915307        0.3494678563        0.3549163977    
AX        0.8756912374        0.8870824383E-02   -0.4073664295    
AX       -0.1682291867       -0.2698743236       -0.4431642658    
AX       -0.7662503815        0.5280543093        0.1089326885E-01
    38
Energy=    -170.992492629051    
AX        0.8184903917        0.4981721291        -1.376171869    
AX         1.368769347       -0.6564179637         1.117747690    
AX       -0.2795656402        -1.432774069        0.5532310469    
AX         1.113425754        -1.109571226       -0.5746881811    
AX        -1.555354595       -0.1901532601        0.2466141235    
AX       -0.5020391417E-02     1.249732596        -1.591823788    
AX         1.263334168        0.2939456947        0.6222165700    
AX        -1.287894163       -0.1117099752         1.322506795    
AX       -0.4824561556        0.6057974899         1.111950862    
AX        0.9190579013         1.123674732       -0.5813882343E-02
AX       -0.2387838433         1.816482459       -0.6483468452    
AX       -0.9590805574       -0.9964704966       -0.2216805820    
AX        0.5789573831        0.9883783268         1.146987627    
AX       -0.5762138609       -0.8811320582        -1.269452501    
AX        -1.138101956         1.557554649       -0.3199129047E-01
AX       -0.9202533144        0.9920563962       -0.9783325077    
AX        -1.509558193        0.8214038650        0.7430449901    
AX         1.212186802        -1.527212155        0.4411903441    
AX        -1.184082535       -0.7532409209E-01   -0.8060772979    
AX         1.813672227        0.5294384587       -0.3448987016    
AX       -0.4787302835       -0.8569530564         1.542768489    
AX        0.5038775134        -1.282006867         1.288220488    
AX        0.4935664680       -0.5619724016        -1.270759390    
AX         1.620686429       -0.2841989505        -1.118932947    
AX       -0.1240504327         1.365164591        0.3547798894    
AX        0.6694121974E-01    -1.326286477       -0.4805516323    
AX        0.9125263331E-01    0.7795635099       -0.6106489781    
AX         1.722063041       -0.5215973875        0.7390315643E-01
AX       -0.2961353138        0.1871131623        -1.439990342    
AX        0.3638196275       -0.1573196692         1.287747168    
AX        -1.800823841        0.7219036219       -0.3389983854    
AX        -1.306668610        -1.109655124        0.8297388468    
AX       -0.5153804710       -0.3730179545        0.5795985428    
AX        0.5339500701       -0.6931271365        0.3316334908    
AX        0.2328915334        0.3494678659        0.3549164273    
AX        0.8756912360        0.8870802951E-02   -0.4073664263    
AX       -0.1682292099       -0.2698743341       -0.4431642679    
AX       -0.7662503788        0.5280543042        0.1089326848E-01
    38
Energy=    -170.992492629050    
AX        0.8184904177        0.4981721701        -1.376171838    
AX         1.368769371       -0.6564179200         1.117747730    
AX       -0.2795656483        -1.432774051        0.5532310842    
AX         1.113425745        -1.109571205       -0.5746882144    
AX        -1.555354614       -0.1901532876        0.2466140631    
AX       -0.5020369434E-02     1.249732597        -1.591823773    
AX         1.263334178        0.2939456942        0.6222165392    
AX        -1.287894181       -0.1117099731         1.322506753    
AX       -0.4824561712        0.6057974944         1.111950878    
AX        0.9190579009         1.123674682       -0.5813994117E-02
AX       -0.2387838077         1.816482437       -0.6483468229    
AX       -0.9590805688       -0.9964705267       -0.2216805868    
AX        0.5789573827        0.9883783072         1.146987665    
AX       -0.5762138468       -0.8811320379        -1.269452500    
AX        -1.138101938         1.557554641       -0.3199123863E-01
AX       -0.9202533411        0.9920564285       -0.9783325065    
AX        -1.509558236        0.8214038223        0.7430449711    
AX         1.212186837        -1.527212110        0.4411903374    
AX        -1.184082521       -0.7532407479E-01   -0.8060773078    
AX         1.813672262        0.5294383749       -0.3448987223    
AX       -0.4787302790       -0.8569530363         1.542768522    
AX        0.5038775339        -1.282006838         1.288220492    
AX        0.4935664670       -0.5619723583        -1.270759400    
AX         1.620686416       -0.2841989137        -1.118932994    
AX       -0.1240504054         1.365164583        0.3547798994    
AX        0.6694121913E-01    -1.326286480       -0.4805516046    
AX        0.9125260150E-01    0.7795634606       -0.6106489626    
AX         1.722063024       -0.5215974294        0.7390318716E-01
AX       -0.2961353278        0.1871131707        -1.439990358    
AX        0.3638196378       -0.1573196595         1.287747181    
AX        -1.800823846        0.7219036358       -0.3389984055    
AX        -1.306668629        -1.109655119        0.8297388546    
AX       -0.5153804703       -0.3730179470        0.5795985441    
AX        0.5339500782       -0.6931271221        0.3316335059    
AX        0.2328915162        0.3494678478        0.3549163988    
AX        0.8756912249        0.8870799005E-02   -0.4073664272    
AX       -0.1682292148       -0.2698743486       -0.4431642368    
AX       -0.7662503990        0.5280542937        0.1089328775E-01
    38
Energy=    -170.992492629046    
AX        0.8184904126        0.4981722475        -1.376171802    
AX         1.368769393       -0.6564179201         1.117747773    
AX       -0.2795656510        -1.432774036        0.5532311252    
AX         1.113425747        -1.109571165       -0.5746882638    
AX        -1.555354628       -0.1901533138        0.2466140207    
AX       -0.5020403622E-02     1.249732628        -1.591823785    
AX         1.263334151        0.2939456720        0.6222165359    
AX        -1.287894181       -0.1117099790         1.322506735    
AX       -0.4824561854        0.6057975160         1.111950881    
AX        0.9190579582         1.123674611       -0.5814143682E-02
AX       -0.2387838237         1.816482396       -0.6483468341    
AX       -0.9590805699       -0.9964705500       -0.2216805994    
AX        0.5789573861        0.9883782866         1.146987701    
AX       -0.5762138177       -0.8811320249        -1.269452518    
AX        -1.138101921         1.557554613       -0.3199117624E-01
AX       -0.9202533650        0.9920564280       -0.9783324931    
AX        -1.509558291        0.8214037605        0.7430449561    
AX         1.212186795        -1.527212107        0.4411902941    
AX        -1.184082511       -0.7532407876E-01   -0.8060773249    
AX         1.813672371        0.5294382679       -0.3448986878    
AX       -0.4787302745       -0.8569529893         1.542768577    
AX        0.5038775379        -1.282006802         1.288220515    
AX        0.4935664653       -0.5619722917        -1.270759416    
AX         1.620686400       -0.2841988744        -1.118933050    
AX       -0.1240503403         1.365164593        0.3547798877    
AX        0.6694123368E-01    -1.326286477       -0.4805515688    
AX        0.9125256909E-01    0.7795634378       -0.6106489722    
AX         1.722063003       -0.5215974785        0.7390323541E-01
AX       -0.2961353398        0.1871131969        -1.439990367    
AX        0.3638196234       -0.1573196292         1.287747191    
AX        -1.800823854        0.7219036396       -0.3389984397    
AX        -1.306668634        -1.109655117        0.8297388716    
AX       -0.5153804703       -0.3730179504        0.5795985537    
AX        0.5339500934       -0.6931270897        0.3316335338    
AX        0.2328915109        0.3494678537        0.3549164090    
AX        0.8756912512        0.8870811336E-02   -0.4073664285    
AX       -0.1682292121       -0.2698743676       -0.4431642290    
AX       -0.7662504289        0.5280542821        0.1089330364E-01
    38
Energy=    -170.992492629044    
AX        0.8184903970        0.4981722783        -1.376171789    
AX         1.368769401       -0.6564179333         1.117747785    
AX       -0.2795656476        -1.432774030        0.5532311366    
AX         1.113425752        -1.109571147       -0.5746882831    
AX        -1.555354627       -0.1901533202        0.2466140038    
AX       -0.5020430576E-02     1.249732641        -1.591823798    
AX         1.263334142        0.2939456519        0.6222165483    
AX        -1.287894170       -0.1117099768         1.322506727    
AX       -0.4824561849        0.6057975320         1.111950881    
AX        0.9190579894         1.123674587       -0.5814201467E-02
AX       -0.2387838553         1.816482382       -0.6483468536    
AX       -0.9590805654       -0.9964705592       -0.2216806070    
AX        0.5789573904        0.9883782912         1.146987714    
AX       -0.5762138040       -0.8811320188        -1.269452529    
AX        -1.138101924         1.557554598       -0.3199115444E-01
AX       -0.9202533831        0.9920564222       -0.9783324856    
AX        -1.509558305        0.8214037382        0.7430449489    
AX         1.212186751        -1.527212130        0.4411902731    
AX        -1.184082506       -0.7532408059E-01   -0.8060773297    
AX         1.813672428        0.5294382226       -0.3448986575    
AX       -0.4787302732       -0.8569529719         1.542768601    
AX        0.5038775318        -1.282006795         1.288220529    
AX        0.4935664654       -0.5619722651        -1.270759420    
AX         1.620686394       -0.2841988547        -1.118933073    
AX       -0.1240503151         1.365164608        0.3547798718    
AX        0.6694124415E-01    -1.326286476       -0.4805515603    
AX        0.9125256665E-01    0.7795634388       -0.6106489745    
AX         1.722062993       -0.5215974977        0.7390326446E-01
AX       -0.2961353429        0.1871132083        -1.439990363    
AX        0.3638196175       -0.1573196206         1.287747192    
AX        -1.800823860        0.7219036349       -0.3389984501    
AX        -1.306668633        -1.109655116        0.8297388794    
AX       -0.5153804602       -0.3730179481        0.5795985577    
AX        0.5339501016       -0.6931270727        0.3316335446    
AX        0.2328915088        0.3494678510        0.3549164163    
AX        0.8756912666        0.8870825149E-02   -0.4073664328    
AX       -0.1682292006       -0.2698743776       -0.4431642256    
AX       -0.7662504532        0.5280542815        0.1089331418E-01
    38
Energy=    -170.992492629027    
AX        0.8184903645        0.4981722360        -1.376171790    
AX         1.368769408       -0.6564179433         1.117747766    
AX       -0.2795656425        -1.432774026        0.5532311235    
AX         1.113425767        -1.109571159       -0.5746882733    
AX        -1.555354609       -0.1901532979        0.2466139745    
AX       -0.5020427009E-02     1.249732626        -1.591823800    
AX         1.263334153        0.2939456248        0.6222165750    
AX        -1.287894139       -0.1117099587         1.322506703    
AX       -0.4824561444        0.6057975412         1.111950911    
AX        0.9190579733         1.123674628       -0.5814187378E-02
AX       -0.2387839027         1.816482375       -0.6483468742    
AX       -0.9590805653       -0.9964705764       -0.2216806291    
AX        0.5789574034        0.9883783395         1.146987695    
AX       -0.5762138081       -0.8811319901        -1.269452537    
AX        -1.138101957         1.557554595       -0.3199116862E-01
AX       -0.9202534006        0.9920564138       -0.9783324829    
AX        -1.509558254        0.8214037433        0.7430449310    
AX         1.212186724        -1.527212194        0.4411902618    
AX        -1.184082509       -0.7532406196E-01   -0.8060773191    
AX         1.813672417        0.5294382522       -0.3448986505    
AX       -0.4787302719       -0.8569529914         1.542768599    
AX        0.5038775222        -1.282006828         1.288220520    
AX        0.4935664525       -0.5619722898        -1.270759381    
AX         1.620686398       -0.2841988443        -1.118933063    
AX       -0.1240503557         1.365164641        0.3547798648    
AX        0.6694124648E-01    -1.326286473       -0.4805515792    
AX        0.9125261097E-01    0.7795634622       -0.6106490072    
AX         1.722062993       -0.5215974835        0.7390329015E-01
AX       -0.2961353223        0.1871132014        -1.439990338    
AX        0.3638196189       -0.1573196294         1.287747165    
AX        -1.800823849        0.7219036357       -0.3389984408    
AX        -1.306668632        -1.109655099        0.8297388622    
AX       -0.5153804307       -0.3730179426        0.5795985806    
AX        0.5339501053       -0.6931270540        0.3316335455    
AX        0.2328915440        0.3494678007        0.3549164866    
AX        0.8756912391        0.8870826122E-02   -0.4073664337    
AX       -0.1682291615       -0.2698744156       -0.4431642348    
AX       -0.7662505597        0.5280543154        0.1089333633E-01
    38
Energy=    -170.992492629030    
AX        0.8184903725        0.4981724731        -1.376171760    
AX         1.368769428       -0.6564180472         1.117747880    
AX       -0.2795656099        -1.432774018        0.5532311806    
AX         1.113425756        -1.109571066       -0.5746884099    
AX        -1.555354640       -0.1901533679        0.2466140460    
AX       -0.5020602385E-02     1.249732716        -1.591823859    
AX         1.263334055        0.2939455397        0.6222166284    
AX        -1.287894188       -0.1117100019         1.322506798    
AX       -0.4824562644        0.6057975963         1.111950789    
AX        0.9190581773         1.123674343       -0.5814435507E-02
AX       -0.2387839626         1.816482388       -0.6483468943    
AX       -0.9590805170       -0.9964705446       -0.2216805875    
AX        0.5789573920        0.9883782491         1.146987723    
AX       -0.5762137236       -0.8811320671        -1.269452535    
AX        -1.138101868         1.557554519       -0.3199104738E-01
AX       -0.9202534255        0.9920563691       -0.9783324781    
AX        -1.509558446        0.8214036280        0.7430449478    
AX         1.212186572        -1.527212117        0.4411901622    
AX        -1.184082519       -0.7532415908E-01   -0.8060773517    
AX         1.813672737        0.5294379609       -0.3448983991    
AX       -0.4787302602       -0.8569528422         1.542768657    
AX        0.5038775010        -1.282006711         1.288220590    
AX        0.4935664831       -0.5619721044        -1.270759485    
AX         1.620686364       -0.2841987702        -1.118933162    
AX       -0.1240501319         1.365164625        0.3547797919    
AX        0.6694130724E-01    -1.326286422       -0.4805514817    
AX        0.9125248638E-01    0.7795634633       -0.6106490038    
AX         1.722062927       -0.5215976244        0.7390334773E-01
AX       -0.2961354076        0.1871132446        -1.439990429    
AX        0.3638196009       -0.1573195276         1.287747230    
AX        -1.800823867        0.7219035958       -0.3389984873    
AX        -1.306668568        -1.109655137        0.8297389235    
AX       -0.5153804768       -0.3730179452        0.5795985605    
AX        0.5339501166       -0.6931269893        0.3316335783    
AX        0.2328914707        0.3494679238        0.3549163758    
AX        0.8756913415        0.8870897864E-02   -0.4073664371    
AX       -0.1682291865       -0.2698743258       -0.4431642677    
AX       -0.7662504219        0.5280542540        0.1089330364E-01
    38
Energy=    -170.992492629010    
AX        0.8184904249        0.4981725783        -1.376171769    
AX         1.368769472       -0.6564180644         1.117747979    
AX       -0.2795655637        -1.432774025        0.5532312056    
AX         1.113425717        -1.109571050       -0.5746885253    
AX        -1.555354667       -0.1901533741        0.2466141582    
AX       -0.5020686195E-02     1.249732742        -1.591823878    
AX         1.263333999        0.2939453914        0.6222166984    
AX        -1.287894277       -0.1117100417         1.322506930    
AX       -0.4824563905        0.6057975847         1.111950659    
AX        0.9190582512         1.123674124       -0.5814525676E-02
AX       -0.2387839101         1.816482484       -0.6483468258    
AX       -0.9590804832       -0.9964705057       -0.2216805325    
AX        0.5789573551        0.9883781570         1.146987697    
AX       -0.5762136805       -0.8811321366        -1.269452478    
AX        -1.138101746         1.557554463       -0.3199099535E-01
AX       -0.9202534267        0.9920563458       -0.9783325078    
AX        -1.509558552        0.8214035586        0.7430449302    
AX         1.212186643        -1.527211934        0.4411900983    
AX        -1.184082593       -0.7532423504E-01   -0.8060773326    
AX         1.813672885        0.5294377852       -0.3448981672    
AX       -0.4787302294       -0.8569527450         1.542768629    
AX        0.5038774958        -1.282006626         1.288220583    
AX        0.4935664833       -0.5619719909        -1.270759550    
AX         1.620686360       -0.2841987245        -1.118933171    
AX       -0.1240500200         1.365164610        0.3547797603    
AX        0.6694131958E-01    -1.326286328       -0.4805513991    
AX        0.9125246486E-01    0.7795634907       -0.6106490906    
AX         1.722062855       -0.5215977257        0.7390335927E-01
AX       -0.2961354872        0.1871132179        -1.439990557    
AX        0.3638196069       -0.1573194210         1.287747226    
AX        -1.800823808        0.7219035754       -0.3389984754    
AX        -1.306668480        -1.109655169        0.8297389479    
AX       -0.5153805047       -0.3730179192        0.5795985477    
AX        0.5339500773       -0.6931269042        0.3316335835    
AX        0.2328914353        0.3494678923        0.3549163183    
AX        0.8756913182        0.8870929470E-02   -0.4073664500    
AX       -0.1682291866       -0.2698742504       -0.4431643513    
AX       -0.7662504703        0.5280542410        0.1089327065E-01
    38
Energy=    -170.992492629002    
AX        0.8184904756        0.4981725590        -1.376171763    
AX         1.368769479       -0.6564180181         1.117747983    
AX       -0.2795655727        -1.432774035        0.5532312143    
AX         1.113425694        -1.109571069       -0.5746885271    
AX        -1.555354687       -0.1901533686        0.2466141812    
AX       -0.5020637160E-02     1.249732736        -1.591823853    
AX         1.263333998        0.2939454058        0.6222166693    
AX        -1.287894321       -0.1117100631         1.322506964    
AX       -0.4824564200        0.6057975487         1.111950655    
AX        0.9190582101         1.123674116       -0.5814515263E-02
AX       -0.2387838156         1.816482490       -0.6483467510    
AX       -0.9590804972       -0.9964704972       -0.2216805247    
AX        0.5789573528        0.9883781224         1.146987689    
AX       -0.5762136902       -0.8811321511        -1.269452463    
AX        -1.138101699         1.557554467       -0.3199099616E-01
AX       -0.9202533840        0.9920563500       -0.9783325234    
AX        -1.509558562        0.8214035495        0.7430449303    
AX         1.212186754        -1.527211838        0.4411901015    
AX        -1.184082619       -0.7532424372E-01   -0.8060773352    
AX         1.813672816        0.5294378254       -0.3448982141    
AX       -0.4787302242       -0.8569527397         1.542768604    
AX        0.5038775176        -1.282006601         1.288220557    
AX        0.4935664733       -0.5619720029        -1.270759550    
AX         1.620686355       -0.2841987516        -1.118933150    
AX       -0.1240500283         1.365164578        0.3547798081    
AX        0.6694130213E-01    -1.326286307       -0.4805513746    
AX        0.9125245878E-01    0.7795634629       -0.6106491079    
AX         1.722062861       -0.5215977092        0.7390331246E-01
AX       -0.2961354902        0.1871131997        -1.439990600    
AX        0.3638196038       -0.1573193992         1.287747236    
AX        -1.800823778        0.7219035989       -0.3389984819    
AX        -1.306668473        -1.109655171        0.8297389334    
AX       -0.5153805340       -0.3730179179        0.5795985420    
AX        0.5339500495       -0.6931269059        0.3316335881    
AX        0.2328914230        0.3494678807        0.3549163046    
AX        0.8756912786        0.8870896261E-02   -0.4073664343    
AX       -0.1682292116       -0.2698742318       -0.4431643664    
AX       -0.7662504567        0.5280542353        0.1089325637E-01
    38
Energy=    -170.992492628896    
AX        0.8184906534        0.4981724875        -1.376171726    
AX         1.368769464       -0.6564177570         1.117747956    
AX       -0.2795656441        -1.432774104        0.5532312549    
AX         1.113425595        -1.109571126       -0.5746884449    
AX        -1.555354762       -0.1901533490        0.2466141934    
AX       -0.5020392219E-02     1.249732694        -1.591823708    
AX         1.263334045        0.2939456093        0.6222164598    
AX        -1.287894471       -0.1117101181         1.322507008    
AX       -0.4824564744        0.6057973812         1.111950674    
AX        0.9190580721         1.123674279       -0.5814437663E-02
AX       -0.2387834186         1.816482430       -0.6483465081    
AX       -0.9590805845       -0.9964704880       -0.2216805205    
AX        0.5789573328        0.9883779605         1.146987776    
AX       -0.5762137627       -0.8811321821        -1.269452447    
AX        -1.138101566         1.557554538       -0.3199102481E-01
AX       -0.9202531976        0.9920564179       -0.9783325519    
AX        -1.509558575        0.8214035735        0.7430449408    
AX         1.212187223        -1.527211550        0.4411902109    
AX        -1.184082648       -0.7532421956E-01   -0.8060773531    
AX         1.813672466        0.5294380692       -0.3448986135    
AX       -0.4787302296       -0.8569527995         1.542768592    
AX        0.5038776153        -1.282006547         1.288220488    
AX        0.4935664566       -0.5619720937        -1.270759578    
AX         1.620686346       -0.2841989172        -1.118933099    
AX       -0.1240501221         1.365164520        0.3547800141    
AX        0.6694119015E-01    -1.326286343       -0.4805513370    
AX        0.9125238175E-01    0.7795633783       -0.6106492560    
AX         1.722062932       -0.5215975879        0.7390310955E-01
AX       -0.2961354596        0.1871131946        -1.439990664    
AX        0.3638195571       -0.1573193698         1.287747201    
AX        -1.800823724        0.7219036956       -0.3389985181    
AX        -1.306668561        -1.109655202        0.8297389084    
AX       -0.5153805032       -0.3730177784        0.5795983912    
AX        0.5339499318       -0.6931268912        0.3316335746    
AX        0.2328913251        0.3494675658        0.3549164138    
AX        0.8756911868        0.8870715251E-02   -0.4073663525    
AX       -0.1682293440       -0.2698742106       -0.4431642570    
AX       -0.7662503335        0.5280541258        0.1089323217E-01
    38
Energy=    -170.992492628900    
AX        0.8184902662        0.4981730626        -1.376172038    
AX         1.368769509       -0.6564182830         1.117748415    
AX       -0.2795653740        -1.432773962        0.5532312020    
AX         1.113425648        -1.109570882       -0.5746888013    
AX        -1.555354606       -0.1901535064        0.2466143930    
AX       -0.5021252777E-02     1.249732761        -1.591824088    
AX         1.263333867        0.2939449994        0.6222169788    
AX        -1.287894233       -0.1117099573         1.322506931    
AX       -0.4824566037        0.6057977359         1.111950144    
AX        0.9190587005         1.123673659       -0.5814465161E-02
AX       -0.2387842302         1.816482901       -0.6483473147    
AX       -0.9590803266       -0.9964704455       -0.2216802700    
AX        0.5789569984        0.9883778505         1.146987836    
AX       -0.5762135764       -0.8811322170        -1.269452298    
AX        -1.138101749         1.557554415       -0.3199096306E-01
AX       -0.9202538255        0.9920564910       -0.9783324489    
AX        -1.509558836        0.8214036651        0.7430448877    
AX         1.212186410        -1.527211909        0.4411902121    
AX        -1.184082549       -0.7532430345E-01   -0.8060771614    
AX         1.813673777        0.5294368794       -0.3448971862    
AX       -0.4787301849       -0.8569526137         1.542768697    
AX        0.5038774026        -1.282006587         1.288220742    