    38
Energy=    -169.355866230312    
AX        0.7929751491        0.4183521464        -1.282339690    
AX         1.297963942       -0.7343265116         1.294994478    
AX       -0.2544256783        -1.480660369        0.5177195891    
AX         1.207850157        -1.258253619       -0.7628111229    
AX        -1.528458299       -0.1974467524        0.2694424391    
AX        0.1929018855E-01     1.278310628        -1.580070066    
AX         1.315019945        0.9673750555E-01    0.5774380490    
AX        -1.173337217       -0.1243251350         1.343922055    
AX       -0.4178529276        0.6167062601         1.070785262    
AX        0.6994509043         1.738249812       -0.2584614110    
AX       -0.3232692841         1.864593766       -0.6651074051    
AX       -0.9243355550       -0.9909219235       -0.2293774182    
AX        0.8748105455         1.131922173        0.7342788390    
AX       -0.5964431394       -0.8701866173        -1.272921210    
AX        -1.164215824         1.558714668       -0.1110037339E-01
AX       -0.9320008573        0.9953401825       -0.9757325421    
AX        -1.474615752        0.8019058546        0.7741467351    
AX        0.8315476796        -1.739859956        0.2047069994    
AX        -1.202620722       -0.6822713752E-01   -0.8035549303    
AX         1.157040397        0.7596450093       -0.2871083832    
AX       -0.2658215876       -0.8376989350         1.452756780    
AX        0.5611507973        -1.543489472         1.260192547    
AX        0.4624459546       -0.6230618396        -1.349160666    
AX         1.938809332       -0.3691098560E-01   -0.3559696017    
AX       -0.1370789930         1.380202492        0.3439398682    
AX        0.1510354285        -1.210571232       -0.4616681752    
AX        0.9146981788E-01    0.8539561942       -0.5983360649    
AX         1.569836955       -0.9162516458        0.2257940888    
AX       -0.3041520659        0.2176207590        -1.470201314    
AX        0.4580303722        0.5070915072E-03     1.315701039    
AX        -1.804322535        0.7130776446       -0.3062611899    
AX        -1.225609972        -1.106405150        0.8523599057    
AX       -0.4810237417       -0.3580429580        0.5291026913    
AX        0.5228099235       -0.7249441893        0.5009993291    
AX        0.3018886944        0.3391679135        0.2979694354    
AX        0.8845328877       -0.2821102235       -0.4045806793    
AX       -0.1734579649       -0.2050064836       -0.4989335353    
AX       -0.7549169544        0.5436910349        0.7445647755E-02
    38
Energy=    -169.355866230312    
AX        0.7929751422        0.4183521495        -1.282339685    
AX         1.297963947       -0.7343265112         1.294994480    
AX       -0.2544256816        -1.480660371        0.5177195891    
AX         1.207850156        -1.258253623       -0.7628111214    
AX        -1.528458301       -0.1974467538        0.2694424377    
AX        0.1929018764E-01     1.278310629        -1.580070061    
AX         1.315019944        0.9673750369E-01    0.5774380461    
AX        -1.173337218       -0.1243251360         1.343922053    
AX       -0.4178529279        0.6167062552         1.070785264    
AX        0.6994509078         1.738249811       -0.2584614041    
AX       -0.3232692801         1.864593765       -0.6651074044    
AX       -0.9243355593       -0.9909219245       -0.2293774187    
AX        0.8748105443         1.131922170        0.7342788447    
AX       -0.5964431389       -0.8701866215        -1.272921217    
AX        -1.164215823         1.558714671       -0.1110037434E-01
AX       -0.9320008562        0.9953401807       -0.9757325425    
AX        -1.474615753        0.8019058551        0.7741467345    
AX        0.8315476732        -1.739859955        0.2047069983    
AX        -1.202620726       -0.6822713782E-01   -0.8035549334    
AX         1.157040396        0.7596450070       -0.2871083826    
AX       -0.2658215791       -0.8376989262         1.452756785    
AX        0.5611507979        -1.543489470         1.260192550    
AX        0.4624459573       -0.6230618390        -1.349160667    
AX         1.938809335       -0.3691098230E-01   -0.3559696094    
AX       -0.1370789930         1.380202498        0.3439398735    
AX        0.1510354312        -1.210571239       -0.4616681726    
AX        0.9146981736E-01    0.8539561977       -0.5983360819    
AX         1.569836953       -0.9162516464        0.2257940899    
AX       -0.3041520666        0.2176207635        -1.470201321    
AX        0.4580303839        0.5071010461E-03     1.315701039    
AX        -1.804322534        0.7130776441       -0.3062611928    
AX        -1.225609973        -1.106405155        0.8523599088    
AX       -0.4810237461       -0.3580429500        0.5291026759    
AX        0.5228099294       -0.7249441818        0.5009993304    
AX        0.3018886916        0.3391678918        0.2979694369    
AX        0.8845328804       -0.2821102256       -0.4045806705    
AX       -0.1734579625       -0.2050064645       -0.4989335252    
AX       -0.7549169562        0.5436910180        0.7445648405E-02
    38
Energy=    -169.355866230312    
AX        0.7929751450        0.4183521262        -1.282339652    
AX         1.297963900       -0.7343264950         1.294994534    
AX       -0.2544256696        -1.480660372        0.5177195894    
AX         1.207850189        -1.258253592       -0.7628110927    
AX        -1.528458306       -0.1974467660        0.2694424223    
AX        0.1929019464E-01     1.278310654        -1.580070043    
AX         1.315019961        0.9673748884E-01    0.5774380311    
AX        -1.173337193       -0.1243251358         1.343922048    
AX       -0.4178529338        0.6167062546         1.070785237    
AX        0.6994509136         1.738249795       -0.2584613732    
AX       -0.3232692728         1.864593791       -0.6651073777    
AX       -0.9243355576       -0.9909219417       -0.2293774403    
AX        0.8748104953         1.131922092        0.7342789058    
AX       -0.5964431327       -0.8701866046        -1.272921225    
AX        -1.164215824         1.558714662       -0.1110037327E-01
AX       -0.9320008426        0.9953401963       -0.9757325506    
AX        -1.474615772        0.8019058320        0.7741467309    
AX        0.8315476863        -1.739859938        0.2047069929    
AX        -1.202620737       -0.6822713556E-01   -0.8035549499    
AX         1.157040384        0.7596449880       -0.2871083665    
AX       -0.2658214546       -0.8376988583         1.452756719    
AX        0.5611508223        -1.543489542         1.260192542    
AX        0.4624459649       -0.6230618447        -1.349160664    
AX         1.938809232       -0.3691107853E-01   -0.3559697522    
AX       -0.1370789966         1.380202472        0.3439398612    
AX        0.1510354443        -1.210571179       -0.4616681462    
AX        0.9146980987E-01    0.8539562045       -0.5983360588    
AX         1.569836954       -0.9162516524        0.2257941441    
AX       -0.3041520693        0.2176207724        -1.470201354    
AX        0.4580304489        0.5072425608E-03     1.315701048    
AX        -1.804322529        0.7130776438       -0.3062612059    
AX        -1.225609944        -1.106405140        0.8523599164    
AX       -0.4810237533       -0.3580429616        0.5291026430    
AX        0.5228099144       -0.7249441844        0.5009994224    
AX        0.3018886786        0.3391678915        0.2979694182    
AX        0.8845328215       -0.2821102604       -0.4045806358    
AX       -0.1734580014       -0.2050064646       -0.4989335806    
AX       -0.7549169708        0.5436910394        0.7445637279E-02
    38
Energy=    -169.355866230310    
AX        0.7929751298        0.4183521151        -1.282339610    
AX         1.297963882       -0.7343264843         1.294994587    
AX       -0.2544256737        -1.480660375        0.5177195925    
AX         1.207850222        -1.258253571       -0.7628110617    
AX        -1.528458320       -0.1974467739        0.2694424055    
AX        0.1929019941E-01     1.278310683        -1.580070024    
AX         1.315019985        0.9673746915E-01    0.5774380077    
AX        -1.173337178       -0.1243251357         1.343922033    
AX       -0.4178529349        0.6167062434         1.070785217    
AX        0.6994509356         1.738249781       -0.2584613209    
AX       -0.3232692535         1.864593797       -0.6651073524    
AX       -0.9243355747       -0.9909219453       -0.2293774599    
AX        0.8748104442         1.131922020        0.7342789753    
AX       -0.5964431256       -0.8701866194        -1.272921246    
AX        -1.164215823         1.558714666       -0.1110037133E-01
AX       -0.9320008357        0.9953402024       -0.9757325575    
AX        -1.474615785        0.8019058271        0.7741467188    
AX        0.8315476919        -1.739859923        0.2047069929    
AX        -1.202620757       -0.6822713911E-01   -0.8035549940    
AX         1.157040372        0.7596449682       -0.2871083429    
AX       -0.2658213570       -0.8376987841         1.452756696    
AX        0.5611508306        -1.543489583         1.260192549    
AX        0.4624459712       -0.6230618446        -1.349160651    
AX         1.938809166       -0.3691112962E-01   -0.3559699400    
AX       -0.1370790047         1.380202467        0.3439398680    
AX        0.1510354525        -1.210571146       -0.4616681211    
AX        0.9146979998E-01    0.8539562131       -0.5983360436    
AX         1.569836972       -0.9162516437        0.2257941825    
AX       -0.3041520763        0.2176207886        -1.470201400    
AX        0.4580305248        0.5073536448E-03     1.315701055    
AX        -1.804322520        0.7130776488       -0.3062612367    
AX        -1.225609930        -1.106405145        0.8523599411    
AX       -0.4810237660       -0.3580429771        0.5291026055    
AX        0.5228099157       -0.7249441891        0.5009994976    
AX        0.3018886607        0.3391678612        0.2979693963    
AX        0.8845327714       -0.2821102896       -0.4045805927    
AX       -0.1734580269       -0.2050064425       -0.4989336209    
AX       -0.7549169850        0.5436910340        0.7445627364E-02
    38
Energy=    -169.355866230310    
AX        0.7929751272        0.4183521172        -1.282339606    
AX         1.297963885       -0.7343264845         1.294994590    
AX       -0.2544256772        -1.480660374        0.5177195932    
AX         1.207850226        -1.258253569       -0.7628110571    
AX        -1.528458323       -0.1974467748        0.2694424056    
AX        0.1929019770E-01     1.278310688        -1.580070023    
AX         1.315019990        0.9673746653E-01    0.5774380031    
AX        -1.173337177       -0.1243251317         1.343922031    
AX       -0.4178529333        0.6167062439         1.070785216    
AX        0.6994509413         1.738249782       -0.2584613107    
AX       -0.3232692475         1.864593797       -0.6651073506    
AX       -0.9243355782       -0.9909219435       -0.2293774604    
AX        0.8748104351         1.131922011        0.7342789875    
AX       -0.5964431220       -0.8701866262        -1.272921249    
AX        -1.164215821         1.558714666       -0.1110037336E-01
AX       -0.9320008343        0.9953402010       -0.9757325575    
AX        -1.474615785        0.8019058305        0.7741467153    
AX        0.8315476933        -1.739859921        0.2047069942    
AX        -1.202620759       -0.6822714266E-01   -0.8035550022    
AX         1.157040369        0.7596449675       -0.2871083381    
AX       -0.2658213587       -0.8376987789         1.452756703    
AX        0.5611508260        -1.543489579         1.260192551    
AX        0.4624459737       -0.6230618428        -1.349160648    
AX         1.938809161       -0.3691112624E-01   -0.3559699739    
AX       -0.1370790055         1.380202468        0.3439398689    
AX        0.1510354513        -1.210571147       -0.4616681209    
AX        0.9146979847E-01    0.8539562127       -0.5983360370    
AX         1.569836980       -0.9162516384        0.2257941820    
AX       -0.3041520765        0.2176207894        -1.470201406    
AX        0.4580305290        0.5073539851E-03     1.315701055    
AX        -1.804322517        0.7130776482       -0.3062612433    
AX        -1.225609932        -1.106405145        0.8523599495    
AX       -0.4810237667       -0.3580429822        0.5291026073    
AX        0.5228099175       -0.7249441931        0.5009995006    
AX        0.3018886571        0.3391678576        0.2979693914    
AX        0.8845327685       -0.2821102904       -0.4045805898    
AX       -0.1734580275       -0.2050064423       -0.4989336249    
AX       -0.7549169850        0.5436910315        0.7445627094E-02
    38
Energy=    -169.355866230303    
AX        0.7929751411        0.4183521443        -1.282339639    
AX         1.297963926       -0.7343265012         1.294994523    
AX       -0.2544256921        -1.480660361        0.5177195918    
AX         1.207850206        -1.258253580       -0.7628110689    
AX        -1.528458322       -0.1974467716        0.2694424342    
AX        0.1929017708E-01     1.278310683        -1.580070050    
AX         1.315019996        0.9673747347E-01    0.5774380096    
AX        -1.173337194       -0.1243250946         1.343922053    
AX       -0.4178529219        0.6167062718         1.070785234    
AX        0.6994509471         1.738249810       -0.2584613187    
AX       -0.3232692333         1.864593794       -0.6651073769    
AX       -0.9243355696       -0.9909219287       -0.2293774321    
AX        0.8748104482         1.131922057        0.7342789777    
AX       -0.5964431067       -0.8701866502        -1.272921231    
AX        -1.164215801         1.558714663       -0.1110039391E-01
AX       -0.9320008330        0.9953401832       -0.9757325510    
AX        -1.474615773        0.8019058622        0.7741467140    
AX        0.8315476998        -1.739859925        0.2047070015    
AX        -1.202620740       -0.6822716437E-01   -0.8035549854    
AX         1.157040361        0.7596449954       -0.2871083419    
AX       -0.2658215182       -0.8376988666         1.452756789    
AX        0.5611507804        -1.543489501         1.260192549    
AX        0.4624459866       -0.6230618301        -1.349160647    
AX         1.938809206       -0.3691103479E-01   -0.3559699394    
AX       -0.1370789981         1.380202472        0.3439398535    
AX        0.1510354340        -1.210571203       -0.4616681583    
AX        0.9146980158E-01    0.8539561768       -0.5983359751    
AX         1.569837010       -0.9162516127        0.2257941229    
AX       -0.3041520669        0.2176207710        -1.470201382    
AX        0.4580304356        0.5071846668E-03     1.315701049    
AX        -1.804322506        0.7130776339       -0.3062612428    
AX        -1.225609968        -1.106405138        0.8523599710    
AX       -0.4810237324       -0.3580429702        0.5291026552    
AX        0.5228099190       -0.7249442184        0.5009994126    
AX        0.3018886113        0.3391678758        0.2979693472    
AX        0.8845328151       -0.2821102506       -0.4045806371    
AX       -0.1734579912       -0.2050064579       -0.4989335564    
AX       -0.7549169343        0.5436910084        0.7445639713E-02
    38
Energy=    -169.355866230307    
AX        0.7929751186        0.4183520496        -1.282339547    
AX         1.297963830       -0.7343264512         1.294994726    
AX       -0.2544256455        -1.480660406        0.5177196039    
AX         1.207850281        -1.258253542       -0.7628110403    
AX        -1.528458356       -0.1974467816        0.2694423428    
AX        0.1929024415E-01     1.278310721        -1.580070017    
AX         1.315020033        0.9673743888E-01    0.5774379870    
AX        -1.173337159       -0.1243252017         1.343921984    
AX       -0.4178529548        0.6167061808         1.070785196    
AX        0.6994509444         1.738249735       -0.2584612547    
AX       -0.3232692653         1.864593797       -0.6651073016    
AX       -0.9243356105       -0.9909219713       -0.2293775248    
AX        0.8748104079         1.131921932        0.7342790573    
AX       -0.5964431582       -0.8701866225        -1.272921294    
AX        -1.164215866         1.558714694       -0.1110033357E-01
AX       -0.9320008558        0.9953402360       -0.9757325745    
AX        -1.474615806        0.8019057966        0.7741467005    
AX        0.8315476909        -1.739859911        0.2047069956    
AX        -1.202620827       -0.6822711069E-01   -0.8035550735    
AX         1.157040369        0.7596449040       -0.2871083091    
AX       -0.2658210456       -0.8376985915         1.452756573    
AX        0.5611509054        -1.543489723         1.260192579    
AX        0.4624459464       -0.6230618772        -1.349160646    
AX         1.938809090       -0.3691130058E-01   -0.3559701368    
AX       -0.1370790317         1.380202475        0.3439399219    
AX        0.1510354845        -1.210571043       -0.4616680458    
AX        0.9146979390E-01    0.8539562418       -0.5983360399    
AX         1.569836945       -0.9162516665        0.2257942779    
AX       -0.3041520899        0.2176208375        -1.470201483    
AX        0.4580307467        0.5076684804E-03     1.315701101    
AX        -1.804322563        0.7130776853       -0.3062612647    
AX        -1.225609883        -1.106405178        0.8523599107    
AX       -0.4810238177       -0.3580430036        0.5291024925    
AX        0.5228099074       -0.7249441731        0.5009996926    
AX        0.3018886481        0.3391678333        0.2979693754    
AX        0.8845326678       -0.2821103633       -0.4045805060    
AX       -0.1734580886       -0.2050063802       -0.4989337187    
AX       -0.7549170300        0.5436910705        0.7445591898E-02
    38
Energy=    -169.355866230306    
AX        0.7929751198        0.4183519998        -1.282339518    
AX         1.297963793       -0.7343264293         1.294994809    
AX       -0.2544256162        -1.480660428        0.5177196097    
AX         1.207850309        -1.258253526       -0.7628110383    
AX        -1.528458377       -0.1974467865        0.2694423021    
AX        0.1929027821E-01     1.278310737        -1.580070019    
AX         1.315020057        0.9673742440E-01    0.5774379860    
AX        -1.173337152       -0.1243252544         1.343921956    
AX       -0.4178529715        0.6167061379         1.070785187    
AX        0.6994509365         1.738249703       -0.2584612344    
AX       -0.3232692855         1.864593798       -0.6651072747    
AX       -0.9243356230       -0.9909219935       -0.2293775671    
AX        0.8748104071         1.131921900        0.7342790816    
AX       -0.5964431880       -0.8701866076        -1.272921318    
AX        -1.164215897         1.558714713       -0.1110030555E-01
AX       -0.9320008720        0.9953402605       -0.9757325861    
AX        -1.474615819        0.8019057702        0.7741466981    
AX        0.8315476849        -1.739859908        0.2047069943    
AX        -1.202620870       -0.6822708669E-01   -0.8035551040    
AX         1.157040373        0.7596448628       -0.2871083001    
AX       -0.2658208373       -0.8376984787         1.452756479    
AX        0.5611509657        -1.543489821         1.260192595    
AX        0.4624459253       -0.6230619026        -1.349160651    
AX         1.938809050       -0.3691141986E-01   -0.3559701821    
AX       -0.1370790477         1.380202475        0.3439399535    
AX        0.1510355064        -1.210570971       -0.4616679990    
AX        0.9146979197E-01    0.8539562566       -0.5983360371    
AX         1.569836910       -0.9162516940        0.2257943396    
AX       -0.3041520982        0.2176208676        -1.470201526    
AX        0.4580308844        0.5078726276E-03     1.315701135    
AX        -1.804322600        0.7130777107       -0.3062612668    
AX        -1.225609850        -1.106405200        0.8523598698    
AX       -0.4810238440       -0.3580430033        0.5291024083    
AX        0.5228098923       -0.7249441558        0.5009998176    
AX        0.3018886321        0.3391678270        0.2979693634    
AX        0.8845326104       -0.2821104094       -0.4045804591    
AX       -0.1734581296       -0.2050063388       -0.4989337671    
AX       -0.7549170498        0.5436910983        0.7445570481E-02
    38
Energy=    -169.355866230304    
AX        0.7929751253        0.4183519592        -1.282339501    
AX         1.297963745       -0.7343264121         1.294994868    
AX       -0.2544255871        -1.480660445        0.5177196092    
AX         1.207850327        -1.258253511       -0.7628110391    
AX        -1.528458378       -0.1974467879        0.2694422738    
AX        0.1929030468E-01     1.278310738        -1.580070015    
AX         1.315020061        0.9673741755E-01    0.5774379953    
AX        -1.173337140       -0.1243252965         1.343921943    
AX       -0.4178529876        0.6167061141         1.070785172    
AX        0.6994509174         1.738249673       -0.2584612487    
AX       -0.3232693146         1.864593804       -0.6651072547    
AX       -0.9243356200       -0.9909220123       -0.2293775944    
AX        0.8748104189         1.131921889        0.7342790734    
AX       -0.5964432155       -0.8701865740        -1.272921329    
AX        -1.164215925         1.558714723       -0.1110028070E-01
AX       -0.9320008810        0.9953402833       -0.9757325957    
AX        -1.474615833        0.8019057366        0.7741467097    
AX        0.8315476829        -1.739859908        0.2047069857    
AX        -1.202620889       -0.6822705948E-01   -0.8035551040    
AX         1.157040388        0.7596448365       -0.2871083069    
AX       -0.2658206773       -0.8376984155         1.452756386    
AX        0.5611510198        -1.543489910         1.260192591    
AX        0.4624459067       -0.6230619213        -1.349160659    
AX         1.938809012       -0.3691152410E-01   -0.3559701543    
AX       -0.1370790547         1.380202465        0.3439399608    
AX        0.1510355280        -1.210570913       -0.4616679631    
AX        0.9146979093E-01    0.8539562651       -0.5983360479    
AX         1.569836869       -0.9162517262        0.2257943973    
AX       -0.3041521062        0.2176208849        -1.470201544    
AX        0.4580309633        0.5080280573E-03     1.315701156    
AX        -1.804322626        0.7130777285       -0.3062612544    
AX        -1.225609816        -1.106405208        0.8523598279    
AX       -0.4810238542       -0.3580429846        0.5291023404    
AX        0.5228098747       -0.7249441359        0.5009999054    
AX        0.3018886263        0.3391678290        0.2979693601    
AX        0.8845325710       -0.2821104428       -0.4045804272    
AX       -0.1734581630       -0.2050063095       -0.4989337917    
AX       -0.7549170613        0.5436911216        0.7445555379E-02
    38
Energy=    -169.355866230302    
AX        0.7929751331        0.4183519450        -1.282339498    
AX         1.297963716       -0.7343264074         1.294994885    
AX       -0.2544255756        -1.480660452        0.5177196053    
AX         1.207850335        -1.258253498       -0.7628110403    
AX        -1.528458369       -0.1974467844        0.2694422676    
AX        0.1929031467E-01     1.278310733        -1.580070014    
AX         1.315020057        0.9673741728E-01    0.5774380032    
AX        -1.173337131       -0.1243253069         1.343921946    
AX       -0.4178529931        0.6167061173         1.070785162    
AX        0.6994509061         1.738249663       -0.2584612705    
AX       -0.3232693313         1.864593806       -0.6651072498    
AX       -0.9243356131       -0.9909220150       -0.2293775976    
AX        0.8748104277         1.131921895        0.7342790601    
AX       -0.5964432273       -0.8701865575        -1.272921324    
AX        -1.164215937         1.558714726       -0.1110027004E-01
AX       -0.9320008835        0.9953402927       -0.9757325992    
AX        -1.474615840        0.8019057232        0.7741467188    
AX        0.8315476912        -1.739859910        0.2047069793    
AX        -1.202620888       -0.6822704707E-01   -0.8035550960    
AX         1.157040400        0.7596448329       -0.2871083130    
AX       -0.2658206373       -0.8376984198         1.452756356    
AX        0.5611510368        -1.543489946         1.260192582    
AX        0.4624458979       -0.6230619270        -1.349160662    
AX         1.938808996       -0.3691156266E-01   -0.3559701311    
AX       -0.1370790540         1.380202462        0.3439399541    
AX        0.1510355389        -1.210570900       -0.4616679527    
AX        0.9146979069E-01    0.8539562654       -0.5983360545    
AX         1.569836855       -0.9162517362        0.2257944192    
AX       -0.3041521078        0.2176208863        -1.470201537    
AX        0.4580309623        0.5080625697E-03     1.315701157    
AX        -1.804322635        0.7130777345       -0.3062612459    
AX        -1.225609804        -1.106405205        0.8523598126    
AX       -0.4810238474       -0.3580429675        0.5291023219    
AX        0.5228098662       -0.7249441316        0.5009999241    
AX        0.3018886251        0.3391678368        0.2979693648    
AX        0.8845325673       -0.2821104493       -0.4045804214    
AX       -0.1734581827       -0.2050063037       -0.4989337906    
AX       -0.7549170578        0.5436911285        0.7445550132E-02
    38
Energy=    -169.355866230296    
AX        0.7929751358        0.4183519395        -1.282339498    
AX         1.297963708       -0.7343264073         1.294994892    
AX       -0.2544255678        -1.480660455        0.5177196008    
AX         1.207850336        -1.258253487       -0.7628110387    
AX        -1.528458368       -0.1974467860        0.2694422671    
AX        0.1929032231E-01     1.278310732        -1.580070013    
AX         1.315020050        0.9673741909E-01    0.5774380054    
AX        -1.173337132       -0.1243253116         1.343921949    
AX       -0.4178529904        0.6167061186         1.070785155    
AX        0.6994509025         1.738249658       -0.2584612825    
AX       -0.3232693341         1.864593804       -0.6651072511    
AX       -0.9243356057       -0.9909220115       -0.2293775993    
AX        0.8748104281         1.131921896        0.7342790425    
AX       -0.5964432303       -0.8701865424        -1.272921317    
AX        -1.164215940         1.558714732       -0.1110026877E-01
AX       -0.9320008801        0.9953402924       -0.9757325999    
AX        -1.474615849        0.8019057207        0.7741467305    
AX        0.8315476891        -1.739859908        0.2047069715    
AX        -1.202620867       -0.6822704920E-01   -0.8035550849    
AX         1.157040407        0.7596448292       -0.2871083193    
AX       -0.2658206212       -0.8376984288         1.452756346    
AX        0.5611510455        -1.543489958         1.260192573    
AX        0.4624458955       -0.6230619259        -1.349160666    
AX         1.938808974       -0.3691157722E-01   -0.3559701182    
AX       -0.1370790506         1.380202456        0.3439399479    
AX        0.1510355478        -1.210570908       -0.4616679478    
AX        0.9146978077E-01    0.8539562656       -0.5983360539    
AX         1.569836846       -0.9162517387        0.2257944270    
AX       -0.3041521091        0.2176208804        -1.470201526    
AX        0.4580309577        0.5080770696E-03     1.315701154    
AX        -1.804322638        0.7130777390       -0.3062612418    
AX        -1.225609801        -1.106405208        0.8523598080    
AX       -0.4810238442       -0.3580429517        0.5291023065    
AX        0.5228098567       -0.7249441352        0.5009999390    
AX        0.3018886242        0.3391678565        0.2979693955    
AX        0.8845326114       -0.2821104545       -0.4045804178    
AX       -0.1734582535       -0.2050062812       -0.4989338054    
AX       -0.7549170367        0.5436911104        0.7445540124E-02
    38
Energy=    -169.355866230297    
AX        0.7929750519        0.4183518880        -1.282339438    
AX         1.297963761       -0.7343263647         1.294995011    
AX       -0.2544255277        -1.480660453        0.5177196292    
AX         1.207850311        -1.258253562       -0.7628110158    
AX        -1.528458465       -0.1974468520        0.2694421923    
AX        0.1929034653E-01     1.278310801        -1.580069976    
AX         1.315020085        0.9673738656E-01    0.5774379874    
AX        -1.173337174       -0.1243254301         1.343921854    
AX       -0.4178530159        0.6167059538         1.070785152    
AX        0.6994509134         1.738249592       -0.2584611652    
AX       -0.3232693084         1.864593832       -0.6651071976    
AX       -0.9243356381       -0.9909220901       -0.2293777131    
AX        0.8748104108         1.131921783        0.7342790764    
AX       -0.5964432347       -0.8701864767        -1.272921416    
AX        -1.164215929         1.558714729       -0.1110025702E-01
AX       -0.9320008768        0.9953403017       -0.9757326112    
AX        -1.474615868        0.8019056518        0.7741467328    
AX        0.8315475388        -1.739859886        0.2047069720    
AX        -1.202620950       -0.6822704423E-01   -0.8035551204    
AX         1.157040364        0.7596447397       -0.2871083376    
AX       -0.2658201655       -0.8376980421         1.452756136    
AX        0.5611511688        -1.543490041         1.260192619    