    38
Energy=    -168.415319534115    
AX        0.8502520645        0.4535865178        -1.385793979    
AX         1.288081776       -0.9112218646         1.114103745    
AX       -0.3214225538        -1.381252988        0.3141852082    
AX         1.361555656        -1.059300860       -0.8354492621    
AX        -1.470835964       -0.1939060046        0.2814710737    
AX        0.2678121276E-01     1.166133599        -1.568764539    
AX         1.273943376        0.1686879162        0.8948861888    
AX        -1.304418069       -0.5188747787E-01     1.365579484    
AX       -0.4169617453        0.6342795654         1.149368926    
AX        0.8020709484         1.627408085       -0.2418794126    
AX       -0.2131819140         1.793774176       -0.6685480598    
AX        -1.175075310        -1.083261023       -0.2810712481    
AX        0.8841234875         1.188410113        0.7873588198    
AX       -0.5330442513       -0.9622789423        -1.206757365    
AX        -1.101982729         1.550616633       -0.5028813025E-01
AX       -0.8557603748        0.9338407215       -0.9489725496    
AX        -1.438096422        0.8521084292        0.7525423141    
AX         1.131182242        -1.539993575        0.1695145088    
AX        -1.198288137       -0.1077942076       -0.8111943034    
AX         1.241338745        0.6223585965       -0.1256379196    
AX       -0.5503108290       -0.7602176597         1.738975243    
AX        0.2568925581        -1.309981472         1.239551775    
AX        0.5430039838       -0.6766682317        -1.501518901    
AX         1.726452479       -0.1405023090E-01   -0.9048471890    
AX       -0.1038871268         1.365178631        0.3581753472    
AX        0.3261394910        -1.258569916       -0.5620642715    
AX        0.1902037166        0.7779502547       -0.5526406018    
AX         1.551721734       -0.4919857317        0.8640352156E-01
AX       -0.2046726981        0.9139031338E-01    -1.274484069    
AX        0.3694869108       -0.2003928921         1.384152409    
AX        -1.750026480        0.7001170152       -0.3097684413    
AX        -1.241162927        -1.103658691        0.8841042841    
AX       -0.4747963019       -0.3626436928        0.7288365990    
AX        0.5152468017       -0.6926811784        0.3892112114    
AX        0.3134326129        0.3360653579        0.3990747714    
AX        0.7004003531       -0.2028625461       -0.5448435355    
AX       -0.3011609750       -0.4116959488       -0.3022830195    
AX       -0.6972253412        0.5143992114        0.3931136763E-01
    38
Energy=    -168.415319534114    
AX        0.8502520694        0.4535865135        -1.385793978    
AX         1.288081761       -0.9112218697         1.114103740    
AX       -0.3214225428        -1.381253001        0.3141851917    
AX         1.361555664        -1.059300864       -0.8354492719    
AX        -1.470835973       -0.1939060123        0.2814710814    
AX        0.2678120473E-01     1.166133597        -1.568764549    
AX         1.273943363        0.1686879012        0.8948861742    
AX        -1.304418074       -0.5188746378E-01     1.365579481    
AX       -0.4169617521        0.6342795635         1.149368933    
AX        0.8020709359         1.627408096       -0.2418793859    
AX       -0.2131819113         1.793774169       -0.6685480675    
AX        -1.175075295        -1.083261019       -0.2810712526    
AX        0.8841234746         1.188410093        0.7873588293    
AX       -0.5330442560       -0.9622789288        -1.206757369    
AX        -1.101982722         1.550616634       -0.5028813566E-01
AX       -0.8557603690        0.9338407126       -0.9489725378    
AX        -1.438096424        0.8521084470        0.7525423174    
AX         1.131182254        -1.539993573        0.1695144951    
AX        -1.198288136       -0.1077942058       -0.8111942870    
AX         1.241338738        0.6223585993       -0.1256379226    
AX       -0.5503108274       -0.7602176134         1.738975268    
AX        0.2568925307        -1.309981442         1.239551773    
AX        0.5430039764       -0.6766682298        -1.501518905    
AX         1.726452495       -0.1405023023E-01   -0.9048471774    
AX       -0.1038871319         1.365178613        0.3581753453    
AX        0.3261394962        -1.258569930       -0.5620642920    
AX        0.1902037258        0.7779502499       -0.5526406024    
AX         1.551721752       -0.4919857438        0.8640352145E-01
AX       -0.2046726998        0.9139031684E-01    -1.274484069    
AX        0.3694869018       -0.2003928726         1.384152412    
AX        -1.750026488        0.7001170208       -0.3097684279    
AX        -1.241162902        -1.103658699        0.8841042927    
AX       -0.4747963020       -0.3626436961        0.7288366039    
AX        0.5152468074       -0.6926811861        0.3892112089    
AX        0.3134326014        0.3360653502        0.3990747643    
AX        0.7004003787       -0.2028625483       -0.5448435459    
AX       -0.3011609734       -0.4116959433       -0.3022830279    
AX       -0.6972253475        0.5143991934        0.3931137144E-01
    38
Energy=    -168.415319534113    
AX        0.8502520735        0.4535864786        -1.385793993    
AX         1.288081774       -0.9112218810         1.114103748    
AX       -0.3214225226        -1.381252995        0.3141851799    
AX         1.361555676        -1.059300849       -0.8354492887    
AX        -1.470836011       -0.1939060095        0.2814711091    
AX        0.2678120606E-01     1.166133576        -1.568764567    
AX         1.273943339        0.1686878720        0.8948861640    
AX        -1.304418061       -0.5188743279E-01     1.365579495    
AX       -0.4169617655        0.6342795750         1.149368935    
AX        0.8020709205         1.627408098       -0.2418793441    
AX       -0.2131818943         1.793774159       -0.6685480882    
AX        -1.175075278        -1.083260990       -0.2810712487    
AX        0.8841234493         1.188410056        0.7873588578    
AX       -0.5330442733       -0.9622789157        -1.206757381    
AX        -1.101982715         1.550616636       -0.5028814921E-01
AX       -0.8557603637        0.9338407110       -0.9489725253    
AX        -1.438096438        0.8521084682        0.7525423162    
AX         1.131182280        -1.539993558        0.1695144714    
AX        -1.198288136       -0.1077941822       -0.8111942609    
AX         1.241338719        0.6223585954       -0.1256379090    
AX       -0.5503108261       -0.7602176003         1.738975267    
AX        0.2568925363        -1.309981424         1.239551776    
AX        0.5430039598       -0.6766682443        -1.501518910    
AX         1.726452520       -0.1405021050E-01   -0.9048471552    
AX       -0.1038871427         1.365178595        0.3581753339    
AX        0.3261394972        -1.258569941       -0.5620643143    
AX        0.1902037348        0.7779502349       -0.5526406031    
AX         1.551721784       -0.4919857508        0.8640351978E-01
AX       -0.2046727042        0.9139031265E-01    -1.274484083    
AX        0.3694868817       -0.2003928547         1.384152415    
AX        -1.750026509        0.7001170317       -0.3097684090    
AX        -1.241162883        -1.103658703        0.8841042996    
AX       -0.4747963095       -0.3626437019        0.7288365831    
AX        0.5152468126       -0.6926811703        0.3892112077    
AX        0.3134325903        0.3360653322        0.3990747520    
AX        0.7004004078       -0.2028625556       -0.5448435480    
AX       -0.3011609475       -0.4116959445       -0.3022830318    
AX       -0.6972253802        0.5143991832        0.3931137834E-01
    38
Energy=    -168.415319534112    
AX        0.8502520442        0.4535863712        -1.385794071    
AX         1.288081857       -0.9112219127         1.114103758    
AX       -0.3214224892        -1.381252960        0.3141852155    
AX         1.361555688        -1.059300786       -0.8354493179    
AX        -1.470836098       -0.1939059675        0.2814711591    
AX        0.2678122160E-01     1.166133518        -1.568764590    
AX         1.273943295        0.1686878174        0.8948861888    
AX        -1.304418014       -0.5188739117E-01     1.365579531    
AX       -0.4169617787        0.6342795977         1.149368904    
AX        0.8020709259         1.627408063       -0.2418792925    
AX       -0.2131818475         1.793774144       -0.6685481244    
AX        -1.175075257        -1.083260918       -0.2810711976    
AX        0.8841234062         1.188410006        0.7873589278    
AX       -0.5330443109       -0.9622789239        -1.206757375    
AX        -1.101982708         1.550616652       -0.5028817436E-01
AX       -0.8557603605        0.9338407333       -0.9489725353    
AX        -1.438096472        0.8521084904        0.7525423106    
AX         1.131182328        -1.539993505        0.1695144360    
AX        -1.198288129       -0.1077941405       -0.8111942172    
AX         1.241338710        0.6223585838       -0.1256378448    
AX       -0.5503108460       -0.7602177146         1.738975176    
AX        0.2568926439        -1.309981456         1.239551793    
AX        0.5430039159       -0.6766682879        -1.501518900    
AX         1.726452542       -0.1405013145E-01   -0.9048471342    
AX       -0.1038871493         1.365178588        0.3581753097    
AX        0.3261395079        -1.258569935       -0.5620643068    
AX        0.1902037279        0.7779502044       -0.5526406415    
AX         1.551721830       -0.4919857296        0.8640351830E-01
AX       -0.2046727314        0.9139030049E-01    -1.274484111    
AX        0.3694868210       -0.2003928628         1.384152420    
AX        -1.750026542        0.7001170627       -0.3097684083    
AX        -1.241162920        -1.103658692        0.8841042811    
AX       -0.4747963434       -0.3626436770        0.7288365474    
AX        0.5152468659       -0.6926811624        0.3892112401    
AX        0.3134325497        0.3360653350        0.3990747568    
AX        0.7004004336       -0.2028625711       -0.5448435468    
AX       -0.3011609073       -0.4116959198       -0.3022830549    
AX       -0.6972254108        0.5143991757        0.3931137067E-01
    38
Energy=    -168.415319534110    
AX        0.8502520258        0.4535863007        -1.385794121    
AX         1.288081920       -0.9112219327         1.114103766    
AX       -0.3214224771        -1.381252927        0.3141852529    
AX         1.361555694        -1.059300744       -0.8354493312    
AX        -1.470836150       -0.1939059307        0.2814711882    
AX        0.2678123823E-01     1.166133482        -1.568764606    
AX         1.273943273        0.1686877942        0.8948862144    
AX        -1.304417976       -0.5188737486E-01     1.365579556    
AX       -0.4169617852        0.6342796167         1.149368884    
AX        0.8020709362         1.627408032       -0.2418792737    
AX       -0.2131818210         1.793774139       -0.6685481410    
AX        -1.175075252        -1.083260872       -0.2810711545    
AX        0.8841233789         1.188409991        0.7873589714    
AX       -0.5330443325       -0.9622789356        -1.206757362    
AX        -1.101982709         1.550616662       -0.5028818792E-01
AX       -0.8557603657        0.9338407524       -0.9489725518    
AX        -1.438096489        0.8521084977        0.7525423091    
AX         1.131182359        -1.539993481        0.1695144209    
AX        -1.198288124       -0.1077941179       -0.8111941952    
AX         1.241338706        0.6223585709       -0.1256378030    
AX       -0.5503108576       -0.7602178226         1.738975096    
AX        0.2568927319        -1.309981502         1.239551802    
AX        0.5430038890       -0.6766683186        -1.501518894    
AX         1.726452547       -0.1405007864E-01   -0.9048471262    
AX       -0.1038871534         1.365178596        0.3581752930    
AX        0.3261395123        -1.258569925       -0.5620642851    
AX        0.1902037251        0.7779501808       -0.5526406434    
AX         1.551721851       -0.4919857073        0.8640351732E-01
AX       -0.2046727532        0.9139028337E-01    -1.274484137    
AX        0.3694867853       -0.2003928839         1.384152421    
AX        -1.750026556        0.7001170831       -0.3097684183    
AX        -1.241162960        -1.103658678        0.8841042615    
AX       -0.4747963696       -0.3626436643        0.7288365216    
AX        0.5152468877       -0.6926811401        0.3892112651    
AX        0.3134325395        0.3360653412        0.3990747433    
AX        0.7004004492       -0.2028625665       -0.5448435416    
AX       -0.3011608893       -0.4116959042       -0.3022830691    
AX       -0.6972254288        0.5143991844        0.3931135858E-01
    38
Energy=    -168.415319534108    
AX        0.8502519861        0.4535862037        -1.385794205    
AX         1.288082026       -0.9112219633         1.114103751    
AX       -0.3214224658        -1.381252876        0.3141853321    
AX         1.361555705        -1.059300685       -0.8354493559    
AX        -1.470836215       -0.1939058578        0.2814712209    
AX        0.2678126370E-01     1.166133440        -1.568764622    
AX         1.273943240        0.1686877700        0.8948862604    
AX        -1.304417926       -0.5188736695E-01     1.365579598    
AX       -0.4169617938        0.6342796489         1.149368849    
AX        0.8020709666         1.627407965       -0.2418792649    
AX       -0.2131817872         1.793774128       -0.6685481561    
AX        -1.175075248        -1.083260811       -0.2810710673    
AX        0.8841233284         1.188409984        0.7873590425    
AX       -0.5330443533       -0.9622789664        -1.206757314    
AX        -1.101982716         1.550616678       -0.5028820477E-01
AX       -0.8557603755        0.9338407806       -0.9489725931    
AX        -1.438096509        0.8521084979        0.7525423025    
AX         1.131182393        -1.539993454        0.1695144021    
AX        -1.198288124       -0.1077941001       -0.8111941699    
AX         1.241338722        0.6223585519       -0.1256377281    
AX       -0.5503108783       -0.7602180242         1.738974966    
AX        0.2568928851        -1.309981591         1.239551813    
AX        0.5430038465       -0.6766683479        -1.501518882    
AX         1.726452551       -0.1404999304E-01   -0.9048471213    
AX       -0.1038871581         1.365178613        0.3581752659    
AX        0.3261395248        -1.258569894       -0.5620642266    
AX        0.1902037165        0.7779501453       -0.5526406687    
AX         1.551721874       -0.4919856763        0.8640351600E-01
AX       -0.2046727982        0.9139026683E-01    -1.274484179    
AX        0.3694867304       -0.2003929249         1.384152427    
AX        -1.750026566        0.7001171200       -0.3097684595    
AX        -1.241163046        -1.103658642        0.8841042205    
AX       -0.4747964105       -0.3626436325        0.7288364904    
AX        0.5152469253       -0.6926811230        0.3892112995    
AX        0.3134325189        0.3360653657        0.3990747401    
AX        0.7004004565       -0.2028625715       -0.5448435304    
AX       -0.3011608443       -0.4116958736       -0.3022830823    
AX       -0.6972254445        0.5143992162        0.3931133288E-01
    38
Energy=    -168.415319534105    
AX        0.8502519471        0.4535861371        -1.385794272    
AX         1.288082109       -0.9112219924         1.114103713    
AX       -0.3214224527        -1.381252846        0.3141853998    
AX         1.361555719        -1.059300646       -0.8354493900    
AX        -1.470836250       -0.1939057965        0.2814712352    
AX        0.2678127318E-01     1.166133432        -1.568764637    
AX         1.273943205        0.1686877454        0.8948862886    
AX        -1.304417904       -0.5188736660E-01     1.365579629    
AX       -0.4169618132        0.6342796802         1.149368831    
AX        0.8020709940         1.627407902       -0.2418792630    
AX       -0.2131817644         1.793774112       -0.6685481614    
AX        -1.175075232        -1.083260773       -0.2810709916    
AX        0.8841232824         1.188409977        0.7873591053    
AX       -0.5330443543       -0.9622789888        -1.206757254    
AX        -1.101982717         1.550616688       -0.5028821690E-01
AX       -0.8557603843        0.9338407945       -0.9489726257    
AX        -1.438096526        0.8521084931        0.7525422864    
AX         1.131182414        -1.539993445        0.1695143785    
AX        -1.198288127       -0.1077941015       -0.8111941510    
AX         1.241338741        0.6223585294       -0.1256376607    
AX       -0.5503108988       -0.7602181691         1.738974886    
AX        0.2568929980        -1.309981640         1.239551827    
AX        0.5430038088       -0.6766683469        -1.501518877    
AX         1.726452555       -0.1404992710E-01   -0.9048471193    
AX       -0.1038871585         1.365178620        0.3581752414    
AX        0.3261395405        -1.258569872       -0.5620641819    
AX        0.1902037212        0.7779501106       -0.5526406837    
AX         1.551721896       -0.4919856661        0.8640350923E-01
AX       -0.2046728467        0.9139025845E-01    -1.274484209    
AX        0.3694866866       -0.2003929468         1.384152442    
AX        -1.750026569        0.7001171535       -0.3097685078    
AX        -1.241163115        -1.103658604        0.8841041867    
AX       -0.4747964400       -0.3626436095        0.7288364898    
AX        0.5152469454       -0.6926811003        0.3892113215    
AX        0.3134325031        0.3360653773        0.3990747343    
AX        0.7004004708       -0.2028625728       -0.5448435210    
AX       -0.3011608024       -0.4116958467       -0.3022830891    
AX       -0.6972254550        0.5143992476        0.3931130712E-01
    38
Energy=    -168.415319534103    
AX        0.8502518841        0.4535860611        -1.385794360    
AX         1.288082195       -0.9112220239         1.114103652    
AX       -0.3214224296        -1.381252831        0.3141854739    
AX         1.361555736        -1.059300600       -0.8354494337    
AX        -1.470836273       -0.1939057283        0.2814712362    
AX        0.2678126321E-01     1.166133445        -1.568764656    
AX         1.273943156        0.1686877100        0.8948863216    
AX        -1.304417907       -0.5188736581E-01     1.365579657    
AX       -0.4169618395        0.6342797167         1.149368820    
AX        0.8020710285         1.627407836       -0.2418792608    
AX       -0.2131817366         1.793774088       -0.6685481685    
AX        -1.175075200        -1.083260740       -0.2810709097    
AX        0.8841232406         1.188409960        0.7873591736    
AX       -0.5330443495       -0.9622790216        -1.206757181    
AX        -1.101982705         1.550616705       -0.5028822934E-01
AX       -0.8557603903        0.9338408025       -0.9489726554    
AX        -1.438096542        0.8521084870        0.7525422574    
AX         1.131182438        -1.539993432        0.1695143433    
AX        -1.198288133       -0.1077941151       -0.8111941272    
AX         1.241338768        0.6223584994       -0.1256375782    
AX       -0.5503109370       -0.7602183157         1.738974827    
AX        0.2568931103        -1.309981671         1.239551850    
AX        0.5430037573       -0.6766683288        -1.501518864    
AX         1.726452552       -0.1404985011E-01   -0.9048471199    
AX       -0.1038871437         1.365178619        0.3581752151    
AX        0.3261395699        -1.258569863       -0.5620641407    
AX        0.1902037397        0.7779500768       -0.5526407202    
AX         1.551721923       -0.4919856548        0.8640349804E-01
AX       -0.2046729104        0.9139026275E-01    -1.274484232    
AX        0.3694866357       -0.2003929616         1.384152472    
AX        -1.750026568        0.7001171959       -0.3097685656    
AX        -1.241163189        -1.103658559        0.8841041450    
AX       -0.4747964586       -0.3626435873        0.7288364591    
AX        0.5152469601       -0.6926810866        0.3892113511    
AX        0.3134324775        0.3360653811        0.3990747422    
AX        0.7004005151       -0.2028625614       -0.5448435218    
AX       -0.3011607832       -0.4116958070       -0.3022830443    
AX       -0.6972254547        0.5143992583        0.3931127458E-01
    38
Energy=    -168.415319534098    
AX        0.8502518484        0.4535860353        -1.385794400    
AX         1.288082230       -0.9112220402         1.114103578    
AX       -0.3214224058        -1.381252846        0.3141854999    
AX         1.361555755        -1.059300586       -0.8354494936    
AX        -1.470836269       -0.1939056918        0.2814712331    
AX        0.2678124341E-01     1.166133490        -1.568764669    
AX         1.273943116        0.1686876763        0.8948863121    
AX        -1.304417931       -0.5188736347E-01     1.365579678    
AX       -0.4169618731        0.6342797465         1.149368825    
AX        0.8020710434         1.627407785       -0.2418792590    
AX       -0.2131817203         1.793774052       -0.6685481700    
AX        -1.175075161        -1.083260725       -0.2810708675    
AX        0.8841231915         1.188409932        0.7873592301    
AX       -0.5330443191       -0.9622790262        -1.206757113    
AX        -1.101982692         1.550616713       -0.5028823818E-01
AX       -0.8557603907        0.9338407918       -0.9489726634    
AX        -1.438096564        0.8521084729        0.7525422195    
AX         1.131182434        -1.539993440        0.1695143035    
AX        -1.198288132       -0.1077941384       -0.8111941065    
AX         1.241338779        0.6223584684       -0.1256375134    
AX       -0.5503109552       -0.7602183445         1.738974848    
AX        0.2568931485        -1.309981631         1.239551871    
AX        0.5430037287       -0.6766682741        -1.501518871    
AX         1.726452569       -0.1404981592E-01   -0.9048471072    
AX       -0.1038871363         1.365178600        0.3581751895    
AX        0.3261395971        -1.258569865       -0.5620641464    
AX        0.1902037627        0.7779500419       -0.5526407474    
AX         1.551721952       -0.4919856878        0.8640348233E-01
AX       -0.2046729616        0.9139027454E-01    -1.274484238    
AX        0.3694866141       -0.2003929386         1.384152504    
AX        -1.750026572        0.7001172229       -0.3097686137    
AX        -1.241163217        -1.103658516        0.8841041343    
AX       -0.4747964666       -0.3626435768        0.7288365090    
AX        0.5152469665       -0.6926810759        0.3892113533    
AX        0.3134324517        0.3360653616        0.3990747544    
AX        0.7004005592       -0.2028625632       -0.5448435257    
AX       -0.3011607593       -0.4116957848       -0.3022830363    
AX       -0.6972254634        0.5143992681        0.3931125392E-01
    38
Energy=    -168.415319534096    
AX        0.8502518523        0.4535860434        -1.385794391    
AX         1.288082229       -0.9112220410         1.114103555    
AX       -0.3214223998        -1.381252853        0.3141854937    
AX         1.361555762        -1.059300592       -0.8354495182    
AX        -1.470836262       -0.1939056873        0.2814712355    
AX        0.2678124084E-01     1.166133508        -1.568764669    
AX         1.273943111        0.1686876672        0.8948862932    
AX        -1.304417940       -0.5188736028E-01     1.365579689    
AX       -0.4169618860        0.6342797567         1.149368830    
AX        0.8020710411         1.627407768       -0.2418792581    
AX       -0.2131817204         1.793774037       -0.6685481693    
AX        -1.175075150        -1.083260719       -0.2810708637    
AX        0.8841231675         1.188409919        0.7873592476    
AX       -0.5330443043       -0.9622790208        -1.206757097    
AX        -1.101982695         1.550616713       -0.5028824142E-01
AX       -0.8557603905        0.9338407849       -0.9489726634    
AX        -1.438096577        0.8521084646        0.7525422080    
AX         1.131182420        -1.539993453        0.1695142886    
AX        -1.198288128       -0.1077941459       -0.8111940993    
AX         1.241338774        0.6223584558       -0.1256375024    
AX       -0.5503109503       -0.7602183206         1.738974880    
AX        0.2568931397        -1.309981601         1.239551874    
AX        0.5430037312       -0.6766682463        -1.501518883    
AX         1.726452582       -0.1404981882E-01   -0.9048470947    
AX       -0.1038871400         1.365178593        0.3581751815    
AX        0.3261396063        -1.258569870       -0.5620641628    
AX        0.1902037665        0.7779500279       -0.5526407542    
AX         1.551721961       -0.4919857154        0.8640347491E-01
AX       -0.2046729700        0.9139028136E-01    -1.274484241    
AX        0.3694866199       -0.2003929201         1.384152512    
AX        -1.750026577        0.7001172240       -0.3097686260    
AX        -1.241163212        -1.103658505        0.8841041442    
AX       -0.4747964602       -0.3626435771        0.7288365261    
AX        0.5152469638       -0.6926810718        0.3892113523    
AX        0.3134324427        0.3360653470        0.3990747603    
AX        0.7004005847       -0.2028625629       -0.5448435345    
AX       -0.3011607629       -0.4116957732       -0.3022830258    
AX       -0.6972254709        0.5143992630        0.3931124996E-01
    38
Energy=    -168.415319534034    
AX        0.8502520807        0.4535861723        -1.385794099    
AX         1.288082170       -0.9112218898         1.114103586    
AX       -0.3214225355        -1.381252726        0.3141854285    
AX         1.361555770        -1.059300704       -0.8354494952    
AX        -1.470836268       -0.1939055966        0.2814713562    
AX        0.2678142354E-01     1.166133450        -1.568764591    
AX         1.273943188        0.1686878445        0.8948862019    
AX        -1.304417744       -0.5188735762E-01     1.365579886    
AX       -0.4169618253        0.6342798161         1.149368819    
AX        0.8020709630         1.627407692       -0.2418793238    
AX       -0.2131818022         1.793773988       -0.6685481745    
AX        -1.175075302        -1.083260602       -0.2810708835    
AX        0.8841229442         1.188409972        0.7873592537    
AX       -0.5330442929       -0.9622790019        -1.206757071    
AX        -1.101982868         1.550616694       -0.5028826671E-01
AX       -0.8557603853        0.9338407717       -0.9489727298    
AX        -1.438096593        0.8521083898        0.7525422617    
AX         1.131182290        -1.539993563        0.1695143801    
AX        -1.198288110       -0.1077940821       -0.8111940980    
AX         1.241338732        0.6223584444       -0.1256375665    
AX       -0.5503107082       -0.7602184406         1.738974796    
AX        0.2568932528        -1.309981783         1.239551667    
AX        0.5430038743       -0.6766682360        -1.501518949    
AX         1.726452715       -0.1404995871E-01   -0.9048469436    
AX       -0.1038872838         1.365178699        0.3581751518    
AX        0.3261395682        -1.258569830       -0.5620641845    
AX        0.1902036704        0.7779499605       -0.5526409177    
AX         1.551721920       -0.4919858272        0.8640353229E-01
AX       -0.2046728561        0.9139028672E-01    -1.274484341    
AX        0.3694867647       -0.2003929830         1.384152366    
AX        -1.750026615        0.7001171795       -0.3097686067    
AX        -1.241163241        -1.103658446        0.8841042325    
AX       -0.4747964555       -0.3626435289        0.7288365573    
AX        0.5152468801       -0.6926810438        0.3892113823    
AX        0.3134325550        0.3360652268        0.3990748746    
AX        0.7004006213       -0.2028625738       -0.5448436483    
AX       -0.3011607814       -0.4116957240       -0.3022831169    
AX       -0.6972257143        0.5143993100        0.3931127459E-01
    38
Energy=    -168.415319534076    
AX        0.8502515389        0.4535857862        -1.385794815    
AX         1.288082364       -0.9112220337         1.114103511    
AX       -0.3214223585        -1.381252968        0.3141856435    
AX         1.361555762        -1.059300395       -0.8354494248    
AX        -1.470836258       -0.1939056093        0.2814711099    
AX        0.2678106137E-01     1.166133579        -1.568764769    
AX         1.273942956        0.1686876190        0.8948865672    
AX        -1.304418042       -0.5188738626E-01     1.365579587    
AX       -0.4169618568        0.6342797256         1.149368870    
AX        0.8020711573         1.627407838       -0.2418792504    
AX       -0.2131816225         1.793774042       -0.6685482313    
AX        -1.175075070        -1.083260775       -0.2810707854    
AX        0.8841233911         1.188409903        0.7873591963    
AX       -0.5330443629       -0.9622791783        -1.206756979    
AX        -1.101982508         1.550616805       -0.5028823619E-01
AX       -0.8557603801        0.9338407847       -0.9489726269    
AX        -1.438096450        0.8521085065        0.7525421393    
AX         1.131182637        -1.539993250        0.1695142648    
AX        -1.198288185       -0.1077942001       -0.8111940623    
AX         1.241338883        0.6223584680       -0.1256373299    
AX       -0.5503112019       -0.7602186943         1.738974629    
AX        0.2568933493        -1.309981741         1.239551956    