    38
Energy=    -170.956894617600    
AX        0.8333282194        0.4686565105        -1.349019818    
AX         1.481653922        -1.015909173        0.6896766703    
AX       -0.2810999227        -1.438835890        0.5930678313    
AX         1.187728605        -1.055138294       -0.3985225937    
AX        -1.550118193       -0.2031665019        0.2384369465    
AX        0.3711434543E-01     1.234464712        -1.563349705    
AX         1.215737010        0.5061338782E-01    0.7548352045    
AX        -1.297097861       -0.1187325260         1.328241780    
AX       -0.5078426024        0.6234377602         1.116503342    
AX        0.7770525673         1.537211744       -0.2210645567    
AX       -0.2373815986         1.805237557       -0.6394962957    
AX       -0.9264404828        -1.010497994       -0.2057673394    
AX        0.8694316440         1.129867717        0.8256978335    
AX       -0.5315986899       -0.9031778063        -1.244732461    
AX        -1.147468475         1.544121559       -0.4503948451E-01
AX       -0.8888120097        0.9668321906       -0.9788180981    
AX        -1.529751226        0.8060120302        0.7267589810    
AX        0.7487732993        -1.770252863        0.3457392579    
AX        -1.154050728       -0.9708983669E-01   -0.8032803405    
AX         1.548475919        0.7860606325       -0.5488043772E-02
AX       -0.4972813690       -0.8975304744         1.551752839    
AX        0.5544061296        -1.223375267         1.309182943    
AX        0.5417080523       -0.6079046198        -1.196852720    
AX         1.618174198       -0.3050460416        -1.121517803    
AX       -0.1438298185         1.374451592        0.3749001797    
AX        0.1133217375        -1.331156572       -0.4491093348    
AX        0.1168780179        0.7685996411       -0.5807627109    
AX         1.908369099       -0.2841241044       -0.3985982648E-01
AX       -0.2471212724        0.1601948666        -1.417293405    
AX        0.2846521457       -0.1482308483         1.337968347    
AX        -1.787096901        0.6989763347       -0.3629171780    
AX        -1.318180472        -1.115862122        0.8289138985    
AX       -0.5248518491       -0.3669543385        0.5995314535    
AX        0.4875750705       -0.6886625216        0.3662844978    
AX        0.2503735024        0.3700727224        0.3935330386    
AX        0.9004225951        0.5645923199E-02   -0.3617988499    
AX       -0.1485433582       -0.2716345836       -0.4149279276    
AX       -0.7566092511        0.5228254979        0.1859344886E-01
    38
Energy=    -170.956894617600    
AX        0.8333282150        0.4686564957        -1.349019825    
AX         1.481653940        -1.015909182        0.6896766584    
AX       -0.2810999162        -1.438835884        0.5930678214    
AX         1.187728607        -1.055138301       -0.3985226010    
AX        -1.550118191       -0.2031664870        0.2384369584    
AX        0.3711434665E-01     1.234464698        -1.563349718    
AX         1.215737007        0.5061337818E-01    0.7548352355    
AX        -1.297097839       -0.1187325181         1.328241788    
AX       -0.5078425876        0.6234377703         1.116503340    
AX        0.7770525546         1.537211738       -0.2210645360    
AX       -0.2373815938         1.805237547       -0.6394963093    
AX       -0.9264404821        -1.010497978       -0.2057673347    
AX        0.8694316056         1.129867714        0.8256978790    
AX       -0.5315986958       -0.9031778074        -1.244732465    
AX        -1.147468481         1.544121573       -0.4503949724E-01
AX       -0.8888120101        0.9668321824       -0.9788181008    
AX        -1.529751212        0.8060120400        0.7267589798    
AX        0.7487733053        -1.770252863        0.3457392499    
AX        -1.154050738       -0.9708983833E-01   -0.8032803363    
AX         1.548475885        0.7860606303       -0.5488002914E-02
AX       -0.4972813576       -0.8975304879         1.551752830    
AX        0.5544061440        -1.223375265         1.309182928    
AX        0.5417080514       -0.6079046321        -1.196852721    
AX         1.618174201       -0.3050460428        -1.121517802    
AX       -0.1438298319         1.374451596        0.3749001771    
AX        0.1133217325        -1.331156574       -0.4491093373    
AX        0.1168780214        0.7685996337       -0.5807627186    
AX         1.908369087       -0.2841240938       -0.3985981899E-01
AX       -0.2471212785        0.1601948581        -1.417293411    
AX        0.2846521399       -0.1482308482         1.337968346    
AX        -1.787096900        0.6989763429       -0.3629171776    
AX        -1.318180465        -1.115862111        0.8289138986    
AX       -0.5248518404       -0.3669543324        0.5995314531    
AX        0.4875750790       -0.6886625217        0.3662844900    
AX        0.2503735108        0.3700727286        0.3935330274    
AX        0.9004225901        0.5645916879E-02   -0.3617988581    
AX       -0.1485433525       -0.2716345821       -0.4149279340    
AX       -0.7566092499        0.5228255067        0.1859344459E-01
    38
Energy=    -170.956894617599    
AX        0.8333282085        0.4686564647        -1.349019857    
AX         1.481653980        -1.015909213        0.6896766088    
AX       -0.2810998947        -1.438835866        0.5930678246    
AX         1.187728607        -1.055138328       -0.3985226255    
AX        -1.550118189       -0.2031664740        0.2384369547    
AX        0.3711435627E-01     1.234464694        -1.563349727    
AX         1.215737014        0.5061334429E-01    0.7548352734    
AX        -1.297097824       -0.1187325019         1.328241775    
AX       -0.5078425747        0.6234377800         1.116503331    
AX        0.7770525246         1.537211752       -0.2210644516    
AX       -0.2373815881         1.805237542       -0.6394963060    
AX       -0.9264404956        -1.010497983       -0.2057673377    
AX        0.8694315556         1.129867694        0.8256979754    
AX       -0.5315987098       -0.9031778090        -1.244732459    
AX        -1.147468501         1.544121591       -0.4503952186E-01
AX       -0.8888119989        0.9668321797       -0.9788181018    
AX        -1.529751210        0.8060120619        0.7267589647    
AX        0.7487733074        -1.770252867        0.3457392596    
AX        -1.154050743       -0.9708983584E-01   -0.8032803323    
AX         1.548475806        0.7860606115       -0.5487944954E-02
AX       -0.4972813270       -0.8975304807         1.551752824    
AX        0.5544062002        -1.223375214         1.309182930    
AX        0.5417080432       -0.6079046605        -1.196852731    
AX         1.618174204       -0.3050460530        -1.121517820    
AX       -0.1438298644         1.374451598        0.3749001949    
AX        0.1133217260        -1.331156576       -0.4491093290    
AX        0.1168780386        0.7685996315       -0.5807627233    
AX         1.908369069       -0.2841240946       -0.3985982790E-01
AX       -0.2471212802        0.1601948470        -1.417293409    
AX        0.2846521347       -0.1482308154         1.337968342    
AX        -1.787096906        0.6989763517       -0.3629171978    
AX        -1.318180446        -1.115862096        0.8289138957    
AX       -0.5248518310       -0.3669543227        0.5995314454    
AX        0.4875751020       -0.6886625274        0.3662844856    
AX        0.2503735178        0.3700727518        0.3935330064    
AX        0.9004225892        0.5645888406E-02   -0.3617988925    
AX       -0.1485433607       -0.2716345837       -0.4149279374    
AX       -0.7566092390        0.5228255189        0.1859344125E-01
    38
Energy=    -170.956894617598    
AX        0.8333282051        0.4686564424        -1.349019890    
AX         1.481654012        -1.015909236        0.6896765660    
AX       -0.2810998788        -1.438835848        0.5930678323    
AX         1.187728608        -1.055138354       -0.3985226485    
AX        -1.550118191       -0.2031664674        0.2384369417    
AX        0.3711436707E-01     1.234464694        -1.563349729    
AX         1.215737019        0.5061332041E-01    0.7548352920    
AX        -1.297097822       -0.1187324880         1.328241761    
AX       -0.5078425739        0.6234377855         1.116503329    
AX        0.7770525003         1.537211767       -0.2210643726    
AX       -0.2373815842         1.805237540       -0.6394962934    
AX       -0.9264405142        -1.010497996       -0.2057673447    
AX        0.8694315219         1.129867676        0.8256980574    
AX       -0.5315987211       -0.9031778108        -1.244732452    
AX        -1.147468518         1.544121596       -0.4503953503E-01
AX       -0.8888119830        0.9668321813       -0.9788180996    
AX        -1.529751220        0.8060120715        0.7267589474    
AX        0.7487733077        -1.770252870        0.3457392746    
AX        -1.154050743       -0.9708982955E-01   -0.8032803328    
AX         1.548475743        0.7860605955       -0.5487905092E-02
AX       -0.4972813000       -0.8975304619         1.551752826    
AX        0.5544062471        -1.223375168         1.309182942    
AX        0.5417080334       -0.6079046847        -1.196852741    
AX         1.618174207       -0.3050460682        -1.121517847    
AX       -0.1438298930         1.374451606        0.3749002139    
AX        0.1133217201        -1.331156575       -0.4491093191    
AX        0.1168780592        0.7685996351       -0.5807627337    
AX         1.908369060       -0.2841241011       -0.3985984592E-01
AX       -0.2471212751        0.1601948411        -1.417293403    
AX        0.2846521387       -0.1482307810         1.337968334    
AX        -1.787096910        0.6989763560       -0.3629172237    
AX        -1.318180428        -1.115862085        0.8289138945    
AX       -0.5248518216       -0.3669543162        0.5995314368    
AX        0.4875751157       -0.6886625129        0.3662844794    
AX        0.2503735444        0.3700727446        0.3935329892    
AX        0.9004225761        0.5645864785E-02   -0.3617989118    
AX       -0.1485433640       -0.2716345896       -0.4149279295    
AX       -0.7566092431        0.5228255268        0.1859344007E-01
    38
Energy=    -170.956894617597    
AX        0.8333282065        0.4686564235        -1.349019923    
AX         1.481654026        -1.015909254        0.6896765311    
AX       -0.2810998649        -1.438835834        0.5930678556    
AX         1.187728609        -1.055138377       -0.3985226685    
AX        -1.550118192       -0.2031664732        0.2384369185    
AX        0.3711437677E-01     1.234464707        -1.563349719    
AX         1.215737026        0.5061329589E-01    0.7548352829    
AX        -1.297097836       -0.1187324804         1.328241736    
AX       -0.5078425844        0.6234377815         1.116503322    
AX        0.7770524797         1.537211798       -0.2210642920    
AX       -0.2373815870         1.805237547       -0.6394962681    
AX       -0.9264405315        -1.010498025       -0.2057673530    
AX        0.8694315141         1.129867659        0.8256981123    
AX       -0.5315987298       -0.9031778149        -1.244732441    
AX        -1.147468530         1.544121587       -0.4503954330E-01
AX       -0.8888119634        0.9668321931       -0.9788181008    
AX        -1.529751239        0.8060120786        0.7267589344    
AX        0.7487733012        -1.770252873        0.3457392971    
AX        -1.154050729       -0.9708981996E-01   -0.8032803397    
AX         1.548475694        0.7860605818       -0.5487894065E-02
AX       -0.4972812807       -0.8975304262         1.551752831    
AX        0.5544062895        -1.223375116         1.309182965    
AX        0.5417080212       -0.6079046998        -1.196852755    
AX         1.618174205       -0.3050460893        -1.121517875    
AX       -0.1438299131         1.374451602        0.3749002384    
AX        0.1133217209        -1.331156572       -0.4491093062    
AX        0.1168780795        0.7685996466       -0.5807627336    
AX         1.908369058       -0.2841241130       -0.3985987828E-01
AX       -0.2471212633        0.1601948433        -1.417293388    
AX        0.2846521460       -0.1482307437         1.337968332    
AX        -1.787096912        0.6989763539       -0.3629172484    
AX        -1.318180415        -1.115862082        0.8289138970    
AX       -0.5248518242       -0.3669543134        0.5995314279    
AX        0.4875751273       -0.6886625113        0.3662844812    
AX        0.2503735559        0.3700727469        0.3935329884    
AX        0.9004225746        0.5645839437E-02   -0.3617989354    
AX       -0.1485433797       -0.2716345947       -0.4149279257    
AX       -0.7566092359        0.5228255275        0.1859343659E-01
    38
Energy=    -170.956894617596    
AX        0.8333282109        0.4686564183        -1.349019939    
AX         1.481654026        -1.015909256        0.6896765213    
AX       -0.2810998617        -1.438835826        0.5930678668    
AX         1.187728610        -1.055138386       -0.3985226764    
AX        -1.550118194       -0.2031664792        0.2384369042    
AX        0.3711438187E-01     1.234464713        -1.563349711    
AX         1.215737031        0.5061329055E-01    0.7548352696    
AX        -1.297097846       -0.1187324780         1.328241726    
AX       -0.5078425916        0.6234377774         1.116503320    
AX        0.7770524718         1.537211814       -0.2210642588    
AX       -0.2373815886         1.805237551       -0.6394962540    
AX       -0.9264405432        -1.010498040       -0.2057673599    
AX        0.8694315146         1.129867654        0.8256981301    
AX       -0.5315987324       -0.9031778161        -1.244732435    
AX        -1.147468533         1.544121576       -0.4503954041E-01
AX       -0.8888119502        0.9668322010       -0.9788180997    
AX        -1.529751254        0.8060120744        0.7267589298    
AX        0.7487732971        -1.770252873        0.3457393093    
AX        -1.154050718       -0.9708981327E-01   -0.8032803461    
AX         1.548475675        0.7860605768       -0.5487898541E-02
AX       -0.4972812732       -0.8975304050         1.551752837    
AX        0.5544063032        -1.223375097         1.309182979    
AX        0.5417080152       -0.6079047044        -1.196852762    
AX         1.618174203       -0.3050461008        -1.121517890    
AX       -0.1438299190         1.374451598        0.3749002483    
AX        0.1133217214        -1.331156567       -0.4491093001    
AX        0.1168780898        0.7685996563       -0.5807627357    
AX         1.908369058       -0.2841241196       -0.3985989987E-01
AX       -0.2471212527        0.1601948461        -1.417293379    
AX        0.2846521547       -0.1482307282         1.337968330    
AX        -1.787096913        0.6989763517       -0.3629172625    
AX        -1.318180411        -1.115862081        0.8289139010    
AX       -0.5248518282       -0.3669543123        0.5995314240    
AX        0.4875751318       -0.6886625079        0.3662844843    
AX        0.2503735626        0.3700727416        0.3935329982    
AX        0.9004225771        0.5645827616E-02   -0.3617989453    
AX       -0.1485433921       -0.2716346014       -0.4149279222    
AX       -0.7566092348        0.5228255244        0.1859343646E-01
    38
Energy=    -170.956894617591    
AX        0.8333282321        0.4686564308        -1.349019933    
AX         1.481654009        -1.015909223        0.6896765499    
AX       -0.2810998767        -1.438835817        0.5930678399    
AX         1.187728617        -1.055138377       -0.3985226692    
AX        -1.550118213       -0.2031664817        0.2384368984    
AX        0.3711439414E-01     1.234464696        -1.563349701    
AX         1.215737038        0.5061333150E-01    0.7548352577    
AX        -1.297097841       -0.1187324766         1.328241742    
AX       -0.5078425801        0.6234377757         1.116503328    
AX        0.7770524760         1.537211791       -0.2210643015    
AX       -0.2373815913         1.805237535       -0.6394962550    
AX       -0.9264405753        -1.010498038       -0.2057673822    
AX        0.8694315117         1.129867680        0.8256981003    
AX       -0.5315987317       -0.9031778067        -1.244732430    
AX        -1.147468534         1.544121562       -0.4503951218E-01
AX       -0.8888119357        0.9668322039       -0.9788180899    
AX        -1.529751277        0.8060120496        0.7267589401    
AX        0.7487733021        -1.770252861        0.3457393040    
AX        -1.154050706       -0.9708980059E-01   -0.8032803504    
AX         1.548475696        0.7860605809       -0.5487919368E-02
AX       -0.4972812674       -0.8975304142         1.551752838    
AX        0.5544062805        -1.223375146         1.309182977    
AX        0.5417080184       -0.6079046986        -1.196852750    
AX         1.618174204       -0.3050461001        -1.121517892    
AX       -0.1438299108         1.374451595        0.3749002379    
AX        0.1133217153        -1.331156553       -0.4491093026    
AX        0.1168780784        0.7685996716       -0.5807627675    
AX         1.908369058       -0.2841241204       -0.3985990671E-01
AX       -0.2471212337        0.1601948392        -1.417293372    
AX        0.2846521799       -0.1482307496         1.337968311    
AX        -1.787096917        0.6989763589       -0.3629172731    
AX        -1.318180416        -1.115862069        0.8289139045    
AX       -0.5248518395       -0.3669543098        0.5995314285    
AX        0.4875751379       -0.6886624989        0.3662844989    
AX        0.2503735662        0.3700727325        0.3935330635    
AX        0.9004226117        0.5645825041E-02   -0.3617989490    
AX       -0.1485434269       -0.2716346361       -0.4149279163    
AX       -0.7566092542        0.5228255189        0.1859345333E-01
    38
Energy=    -170.956894617592    
AX        0.8333281833        0.4686563906        -1.349019995    
AX         1.481654052        -1.015909312        0.6896764481    
AX       -0.2810998293        -1.438835817        0.5930679535    
AX         1.187728595        -1.055138425       -0.3985227117    
AX        -1.550118168       -0.2031665025        0.2384368667    
AX        0.3711436707E-01     1.234464762        -1.563349701    
AX         1.215737032        0.5061320753E-01    0.7548352431    
AX        -1.297097891       -0.1187324745         1.328241671    
AX       -0.5078426333        0.6234377648         1.116503289    
AX        0.7770524554         1.537211899       -0.2210640818    
AX       -0.2373815791         1.805237591       -0.6394962077    
AX       -0.9264405149        -1.010498082       -0.2057673369    
AX        0.8694315173         1.129867580        0.8256982400    
AX       -0.5315987373       -0.9031778370        -1.244732430    
AX        -1.147468533         1.544121562       -0.4503956802E-01
AX       -0.8888119309        0.9668322197       -0.9788181082    
AX        -1.529751272        0.8060120828        0.7267588908    
AX        0.7487732710        -1.770252885        0.3457393573    
AX        -1.154050700       -0.9708982070E-01   -0.8032803622    
AX         1.548475602        0.7860605575       -0.5487870192E-02
AX       -0.4972812661       -0.8975303093         1.551752865    
AX        0.5544063692        -1.223374956         1.309183019    
AX        0.5417079940       -0.6079047217        -1.196852803    
AX         1.618174180       -0.3050461368        -1.121517944    
AX       -0.1438299409         1.374451587        0.3749002959    
AX        0.1133217314        -1.331156585       -0.4491092766    
AX        0.1168781364        0.7685996683       -0.5807627161    
AX         1.908369058       -0.2841241395       -0.3985996685E-01
AX       -0.2471212522        0.1601948725        -1.417293358    
AX        0.2846521428       -0.1482306333         1.337968350    
AX        -1.787096903        0.6989763247       -0.3629172918    
AX        -1.318180390        -1.115862095        0.8289139180    
AX       -0.5248518199       -0.3669543075        0.5995314072    
AX        0.4875751344       -0.6886625218        0.3662844775    
AX        0.2503735717        0.3700727379        0.3935329549    
AX        0.9004225500        0.5645803880E-02   -0.3617989889    
AX       -0.1485433787       -0.2716345583       -0.4149279319    
AX       -0.7566092024        0.5228255104        0.1859340261E-01
    38
Energy=    -170.956894617585    
AX        0.8333280990        0.4686563609        -1.349020041    
AX         1.481654119        -1.015909430        0.6896763382    
AX       -0.2810997857        -1.438835839        0.5930680645    
AX         1.187728558        -1.055138435       -0.3985227488    
AX        -1.550118104       -0.2031665129        0.2384368751    
AX        0.3711430882E-01     1.234464808        -1.563349716    
AX         1.215736992        0.5061306250E-01    0.7548352809    
AX        -1.297097921       -0.1187324714         1.328241619    
AX       -0.5078426605        0.6234377679         1.116503227    
AX        0.7770524466         1.537211933       -0.2210638957    
AX       -0.2373815386         1.805237611       -0.6394961908    
AX       -0.9264403748        -1.010498063       -0.2057672689    
AX        0.8694314930         1.129867445        0.8256984071    
AX       -0.5315987305       -0.9031778626        -1.244732429    
AX        -1.147468522         1.544121596       -0.4503964618E-01
AX       -0.8888119584        0.9668322136       -0.9788181309    
AX        -1.529751219        0.8060121282        0.7267588226    
AX        0.7487732502        -1.770252918        0.3457393839    
AX        -1.154050718       -0.9708988607E-01   -0.8032803543    
AX         1.548475549        0.7860605299       -0.5487739675E-02
AX       -0.4972812783       -0.8975302400         1.551752886    
AX        0.5544064461        -1.223374766         1.309183027    
AX        0.5417079723       -0.6079047452        -1.196852849    
AX         1.618174143       -0.3050461443        -1.121517966    
AX       -0.1438299670         1.374451604        0.3749003391    
AX        0.1133217245        -1.331156619       -0.4491092733    
AX        0.1168781669        0.7685997557       -0.5807627532    
AX         1.908369030       -0.2841241395       -0.3985998038E-01
AX       -0.2471213252        0.1601948946        -1.417293391    
AX        0.2846520700       -0.1482305016         1.337968365    
AX        -1.787096888        0.6989762909       -0.3629172756    
AX        -1.318180364        -1.115862127        0.8289139330    
AX       -0.5248517688       -0.3669542942        0.5995313937    
AX        0.4875751268       -0.6886625238        0.3662844277    
AX        0.2503735830        0.3700727445        0.3935329240    
AX        0.9004225717        0.5645804003E-02   -0.3617990245    
AX       -0.1485433430       -0.2716345603       -0.4149279884    
AX       -0.7566091831        0.5228255288        0.1859334969E-01
    38
Energy=    -170.956894617582    
AX        0.8333280746        0.4686563521        -1.349020037    
AX         1.481654136        -1.015909461        0.6896763146    
AX       -0.2810997725        -1.438835853        0.5930680800    
AX         1.187728554        -1.055138439       -0.3985227524    
AX        -1.550118086       -0.2031665037        0.2384368904    
AX        0.3711429468E-01     1.234464816        -1.563349724    
AX         1.215736976        0.5061302987E-01    0.7548353020    
AX        -1.297097917       -0.1187324733         1.328241612    
AX       -0.5078426575        0.6234377712         1.116503220    
AX        0.7770524431         1.537211948       -0.2210638767    
AX       -0.2373815335         1.805237619       -0.6394962019    
AX       -0.9264403364        -1.010498051       -0.2057672501    
AX        0.8694314890         1.129867421        0.8256984235    
AX       -0.5315987283       -0.9031778665        -1.244732433    
AX        -1.147468519         1.544121616       -0.4503967633E-01
AX       -0.8888119746        0.9668322056       -0.9788181389    
AX        -1.529751186        0.8060121567        0.7267588153    
AX        0.7487732491        -1.770252931        0.3457393830    
AX        -1.154050733       -0.9708990231E-01   -0.8032803443    
AX         1.548475531        0.7860605250       -0.5487719239E-02
AX       -0.4972812879       -0.8975302488         1.551752883    
AX        0.5544064615        -1.223374733         1.309183022    
AX        0.5417079738       -0.6079047495        -1.196852855    
AX         1.618174142       -0.3050461345        -1.121517950    
AX       -0.1438299723         1.374451610        0.3749003409    
AX        0.1133217281        -1.331156629       -0.4491092762    
AX        0.1168781710        0.7685997673       -0.5807627556    
AX         1.908369025       -0.2841241340       -0.3985996045E-01
AX       -0.2471213479        0.1601948994        -1.417293400    
AX        0.2846520405       -0.1482304853         1.337968373    
AX        -1.787096884        0.6989762875       -0.3629172582    
AX        -1.318180359        -1.115862138        0.8289139249    
AX       -0.5248517542       -0.3669542972        0.5995313921    
AX        0.4875751203       -0.6886625364        0.3662844162    
AX        0.2503735806        0.3700727538        0.3935329092    
AX        0.9004225650        0.5645801852E-02   -0.3617990284    
AX       -0.1485433226       -0.2716345520       -0.4149280027    
AX       -0.7566091820        0.5228255389        0.1859333913E-01
    38
Energy=    -170.956894617543    
AX        0.8333280726        0.4686563049        -1.349019910    
AX         1.481654128        -1.015909478        0.6896762935    
AX       -0.2810997291        -1.438835914        0.5930680482    
AX         1.187728599        -1.055138491       -0.3985227303    
AX        -1.550118075       -0.2031663878        0.2384369525    
AX        0.3711435599E-01     1.234464857        -1.563349700    
AX         1.215736968        0.5061303917E-01    0.7548353162    
AX        -1.297097899       -0.1187325237         1.328241622    
AX       -0.5078426193        0.6234377474         1.116503269    
AX        0.7770523464         1.537212101       -0.2210640218    
AX       -0.2373816286         1.805237665       -0.6394962499    
AX       -0.9264402870        -1.010498049       -0.2057672670    
AX        0.8694315806         1.129867496        0.8256981850    
AX       -0.5315987253       -0.9031778442        -1.244732413    
AX        -1.147468538         1.544121631       -0.4503976047E-01
AX       -0.8888119968        0.9668321822       -0.9788181717    
AX        -1.529751034        0.8060123091        0.7267588722    
AX        0.7487732954        -1.770253021        0.3457393924    
AX        -1.154050803       -0.9708989363E-01   -0.8032802981    
AX         1.548475411        0.7860605295       -0.5487959468E-02
AX       -0.4972813487       -0.8975303771         1.551752816    
AX        0.5544064667        -1.223374778         1.309183032    
AX        0.5417079773       -0.6079047590        -1.196852824    
AX         1.618174193       -0.3050461202        -1.121517760    
AX       -0.1438299825         1.374451594        0.3749003207    
AX        0.1133217652        -1.331156593       -0.4491092757    
AX        0.1168782518        0.7685998584       -0.5807626767    
AX         1.908369058       -0.2841240883       -0.3985983464E-01
AX       -0.2471213526        0.1601949245        -1.417293398    
AX        0.2846519676       -0.1482305856         1.337968422    
AX        -1.787096856        0.6989763289       -0.3629172001    
AX        -1.318180346        -1.115862189        0.8289137892    
AX       -0.5248517186       -0.3669543723        0.5995313903    
AX        0.4875750178       -0.6886626049        0.3662843872    
AX        0.2503735287        0.3700728200        0.3935329228    
AX        0.9004224748        0.5645680214E-02   -0.3617990015    
AX       -0.1485432298       -0.2716346593       -0.4149279933    
AX       -0.7566092880        0.5228256604        0.1859341531E-01
    38
Energy=    -170.956894617555    
AX        0.8333279955        0.4686563959        -1.349020220    
AX         1.481654192        -1.015909478        0.6896761856    
AX       -0.2810997710        -1.438835750        0.5930682599    
AX         1.187728407        -1.055138395       -0.3985228302    
AX        -1.550118077       -0.2031666559        0.2384367996    
AX        0.3711419217E-01     1.234464894        -1.563349792    
AX         1.215737028        0.5061293891E-01    0.7548352813    
AX        -1.297098050       -0.1187324412         1.328241601    
AX       -0.5078427705        0.6234377776         1.116503108    
AX        0.7770525611         1.537211730       -0.2210634730    
AX       -0.2373813881         1.805237594       -0.6394960600    
AX       -0.9264402231        -1.010498004       -0.2057671645    
AX        0.8694313530         1.129867107        0.8256989408    
AX       -0.5315987026       -0.9031779087        -1.244732470    
AX        -1.147468477         1.544121532       -0.4503954714E-01
AX       -0.8888119222        0.9668322084       -0.9788180953    
AX        -1.529751389        0.8060118742        0.7267585979    
AX        0.7487732001        -1.770252844        0.3457394579    
AX        -1.154050704       -0.9709000711E-01   -0.8032804248    
AX         1.548475711        0.7860605251       -0.5487328212E-02
AX       -0.4972812505       -0.8975298699         1.551753072    
AX        0.5544064259        -1.223374477         1.309183020    