    38
Energy=    -169.205253906215    
AX        0.8763041639        0.4723542053        -1.395514644    
AX         1.251488161       -0.8652490858         1.081480726    
AX       -0.2876304195        -1.262097435        0.2933899751    
AX         1.261771794        -1.212523433       -0.8461051010    
AX        -1.277823072       -0.4698758623        0.1514531646    
AX       -0.5420835767E-03     1.160589519        -1.509165528    
AX         1.313799079        0.2206966945        0.7679435972    
AX        -1.342303341        0.6794407995E-01     1.108580470    
AX       -0.3896994703        0.6478944265         1.309022718    
AX        0.7327598538         1.413976506        0.1007288791    
AX       -0.1916032149         1.672994629       -0.5178646071    
AX       -0.9451407373        -1.234468012       -0.5662986180    
AX        0.6558453521         1.101513425         1.241885983    
AX       -0.4887638884       -0.9525403175        -1.519115622    
AX        -1.199060077         1.501799179       -0.1121072324    
AX       -0.8403853766        0.7988028102       -0.8764772176    
AX        -1.297336649         1.146092804        0.9138140409    
AX        0.8624221204        -1.520905247        0.1629904561    
AX        -1.192221897       -0.2296371821       -0.9537541237    
AX         1.258258801        0.5247759548       -0.2823234448    
AX       -0.5342681837       -0.3484958271         1.822966842    
AX        0.1529711909        -1.090596732         1.271333394    
AX        0.6224822405       -0.6946859504        -1.633754916    
AX         1.688400170       -0.2038023463        -1.058000484    
AX       -0.2598191299         1.446541448        0.5670695764    
AX        0.1752466824        -1.236359777       -0.6921080527    
AX        0.1880543943        0.6699095987       -0.5499755606    
AX         1.552009998       -0.5581208364        0.3978369215E-02
AX       -0.1575696642        0.5569220528E-01    -1.355446420    
AX        0.4745595716       -0.5005295683E-01     1.406498521    
AX        -1.715782804        0.4876371177       -0.2251088703    
AX        -1.042113361        -1.061524739         1.100959101    
AX       -0.3934851459       -0.2843444110        0.7601151403    
AX        0.5379153107       -0.5364099749        0.3624155723    
AX        0.3055590414        0.4812893246        0.4607892794    
AX        0.6889948443       -0.2916849631       -0.6518580225    
AX       -0.3146705389       -0.3138658657       -0.3255909644    
AX       -0.7286237139        0.5467370261        0.1831536225    
    38
Energy=    -169.205253906215    
AX        0.8763041542        0.4723542008        -1.395514646    
AX         1.251488165       -0.8652490780         1.081480728    
AX       -0.2876304003        -1.262097444        0.2933899781    
AX         1.261771801        -1.212523433       -0.8461050947    
AX        -1.277823090       -0.4698758378        0.1514531582    
AX       -0.5420826980E-03     1.160589531        -1.509165522    
AX         1.313799080        0.2206967094        0.7679435867    
AX        -1.342303338        0.6794407629E-01     1.108580468    
AX       -0.3896994612        0.6478944163         1.309022729    
AX        0.7327598494         1.413976508        0.1007288630    
AX       -0.1916032198         1.672994629       -0.5178646091    
AX       -0.9451407429        -1.234468008       -0.5662985917    
AX        0.6558453477         1.101513416         1.241885984    
AX       -0.4887638847       -0.9525403201        -1.519115597    
AX        -1.199060072         1.501799173       -0.1121072252    
AX       -0.8403853816        0.7988028135       -0.8764772205    
AX        -1.297336631         1.146092797        0.9138140509    
AX        0.8624221201        -1.520905252        0.1629904577    
AX        -1.192221876       -0.2296371844       -0.9537541263    
AX         1.258258804        0.5247759637       -0.2823234628    
AX       -0.5342682100       -0.3484958501         1.822966838    
AX        0.1529711880        -1.090596728         1.271333398    
AX        0.6224822389       -0.6946859540        -1.633754902    
AX         1.688400161       -0.2038023554        -1.058000499    
AX       -0.2598191217         1.446541448        0.5670695855    
AX        0.1752466905        -1.236359777       -0.6921080485    
AX        0.1880543840        0.6699095982       -0.5499755662    
AX         1.552010007       -0.5581208308        0.3978369046E-02
AX       -0.1575696691        0.5569220936E-01    -1.355446420    
AX        0.4745595714       -0.5005295645E-01     1.406498514    
AX        -1.715782806        0.4876371355       -0.2251088977    
AX        -1.042113379        -1.061524738         1.100959068    
AX       -0.3934851493       -0.2843444196        0.7601151446    
AX        0.5379153221       -0.5364099785        0.3624155745    
AX        0.3055590448        0.4812893266        0.4607892777    
AX        0.6889948424       -0.2916849625       -0.6518580138    
AX       -0.3146705341       -0.3138658695       -0.3255909549    
AX       -0.7286237226        0.5467370273        0.1831536239    
    38
Energy=    -169.205253906215    
AX        0.8763041508        0.4723541983        -1.395514645    
AX         1.251488169       -0.8652490731         1.081480728    
AX       -0.2876303917        -1.262097448        0.2933899792    
AX         1.261771805        -1.212523431       -0.8461050949    
AX        -1.277823099       -0.4698758243        0.1514531564    
AX       -0.5420819319E-03     1.160589535        -1.509165520    
AX         1.313799080        0.2206967143        0.7679435814    
AX        -1.342303334        0.6794407345E-01     1.108580468    
AX       -0.3896994577        0.6478944109         1.309022735    
AX        0.7327598481         1.413976508        0.1007288544    
AX       -0.1916032211         1.672994630       -0.5178646111    
AX       -0.9451407472        -1.234468004       -0.5662985776    
AX        0.6558453442         1.101513412         1.241885984    
AX       -0.4887638833       -0.9525403218        -1.519115585    
AX        -1.199060069         1.501799171       -0.1121072214    
AX       -0.8403853835        0.7988028145       -0.8764772217    
AX        -1.297336624         1.146092794        0.9138140574    
AX        0.8624221204        -1.520905252        0.1629904549    
AX        -1.192221865       -0.2296371859       -0.9537541267    
AX         1.258258806        0.5247759669       -0.2823234709    
AX       -0.5342682218       -0.3484958609         1.822966837    
AX        0.1529711853        -1.090596726         1.271333401    
AX        0.6224822376       -0.6946859558        -1.633754898    
AX         1.688400159       -0.2038023586        -1.058000504    
AX       -0.2598191182         1.446541445        0.5670695876    
AX        0.1752466938        -1.236359778       -0.6921080472    
AX        0.1880543808        0.6699095975       -0.5499755662    
AX         1.552010008       -0.5581208295        0.3978368929E-02
AX       -0.1575696707        0.5569221050E-01    -1.355446420    
AX        0.4745595705       -0.5005295606E-01     1.406498512    
AX        -1.715782807        0.4876371428       -0.2251089144    
AX        -1.042113387        -1.061524738         1.100959053    
AX       -0.3934851542       -0.2843444221        0.7601151473    
AX        0.5379153303       -0.5364099838        0.3624155748    
AX        0.3055590433        0.4812893302        0.4607892734    
AX        0.6889948412       -0.2916849611       -0.6518580082    
AX       -0.3146705313       -0.3138658704       -0.3255909488    
AX       -0.7286237266        0.5467370257        0.1831536264    
    38
Energy=    -169.205253906214    
AX        0.8763041508        0.4723541963        -1.395514637    
AX         1.251488186       -0.8652490652         1.081480728    
AX       -0.2876303754        -1.262097454        0.2933899847    
AX         1.261771812        -1.212523420       -0.8461051123    
AX        -1.277823115       -0.4698757933        0.1514531546    
AX       -0.5420808428E-03     1.160589536        -1.509165520    
AX         1.313799070        0.2206967117        0.7679435740    
AX        -1.342303332        0.6794407196E-01     1.108580480    
AX       -0.3896994551        0.6478944030         1.309022743    
AX        0.7327598504         1.413976508        0.1007288310    
AX       -0.1916032230         1.672994636       -0.5178646173    
AX       -0.9451407579        -1.234467992       -0.5662985464    
AX        0.6558453361         1.101513415         1.241885975    
AX       -0.4887638863       -0.9525403299        -1.519115562    
AX        -1.199060064         1.501799173       -0.1121072083    
AX       -0.8403853827        0.7988028183       -0.8764772223    
AX        -1.297336613         1.146092795        0.9138140792    
AX        0.8624221288        -1.520905250        0.1629904315    
AX        -1.192221843       -0.2296371878       -0.9537541274    
AX         1.258258814        0.5247759647       -0.2823234787    
AX       -0.5342682382       -0.3484958777         1.822966840    
AX        0.1529711793        -1.090596722         1.271333416    
AX        0.6224822337       -0.6946859565        -1.633754895    
AX         1.688400160       -0.2038023531        -1.058000498    
AX       -0.2598191121         1.446541429        0.5670695791    
AX        0.1752466961        -1.236359784       -0.6921080461    
AX        0.1880543797        0.6699095966       -0.5499755685    
AX         1.552010007       -0.5581208337        0.3978365461E-02
AX       -0.1575696682        0.5569220872E-01    -1.355446419    
AX        0.4745595651       -0.5005295518E-01     1.406498513    
AX        -1.715782812        0.4876371504       -0.2251089607    
AX        -1.042113398        -1.061524748         1.100959029    
AX       -0.3934851450       -0.2843444250        0.7601151392    
AX        0.5379153220       -0.5364099807        0.3624155894    
AX        0.3055590323        0.4812893216        0.4607892672    
AX        0.6889948453       -0.2916849538       -0.6518580009    
AX       -0.3146705290       -0.3138658711       -0.3255909317    
AX       -0.7286237389        0.5467370165        0.1831536321    
    38
Energy=    -169.205253906213    
AX        0.8763041612        0.4723542003        -1.395514626    
AX         1.251488210       -0.8652490563         1.081480727    
AX       -0.2876303600        -1.262097463        0.2933899949    
AX         1.261771816        -1.212523400       -0.8461051492    
AX        -1.277823128       -0.4698757538        0.1514531582    
AX       -0.5420794659E-03     1.160589527        -1.509165526    
AX         1.313799049        0.2206966943        0.7679435676    
AX        -1.342303326        0.6794407200E-01     1.108580507    
AX       -0.3896994593        0.6478943941         1.309022748    
AX        0.7327598561         1.413976503        0.1007288013    
AX       -0.1916032223         1.672994644       -0.5178646265    
AX       -0.9451407696        -1.234467975       -0.5662985090    
AX        0.6558453261         1.101513429         1.241885954    
AX       -0.4887638973       -0.9525403419        -1.519115541    
AX        -1.199060061         1.501799180       -0.1121071865    
AX       -0.8403853736        0.7988028260       -0.8764772197    
AX        -1.297336606         1.146092809        0.9138141128    
AX        0.8624221477        -1.520905235        0.1629903879    
AX        -1.192221823       -0.2296371873       -0.9537541278    
AX         1.258258831        0.5247759636       -0.2823234714    
AX       -0.5342682435       -0.3484958898         1.822966838    
AX        0.1529711731        -1.090596721         1.271333443    
AX        0.6224822267       -0.6946859507        -1.633754895    
AX         1.688400174       -0.2038023341        -1.058000477    
AX       -0.2598191084         1.446541399        0.5670695540    
AX        0.1752466987        -1.236359787       -0.6921080456    
AX        0.1880543825        0.6699096055       -0.5499755635    
AX         1.552009993       -0.5581208463        0.3978361381E-02
AX       -0.1575696601        0.5569219706E-01    -1.355446416    
AX        0.4745595567       -0.5005295561E-01     1.406498523    
AX        -1.715782817        0.4876371525       -0.2251090278    
AX        -1.042113402        -1.061524763         1.100959006    
AX       -0.3934851567       -0.2843444258        0.7601151471    
AX        0.5379153228       -0.5364099861        0.3624156100    
AX        0.3055590146        0.4812893137        0.4607892566    
AX        0.6889948420       -0.2916849689       -0.6518580024    
AX       -0.3146705228       -0.3138658733       -0.3255909235    
AX       -0.7286237645        0.5467370045        0.1831536365    
    38
Energy=    -169.205253906212    
AX        0.8763041775        0.4723542108        -1.395514613    
AX         1.251488239       -0.8652490365         1.081480731    
AX       -0.2876303442        -1.262097475        0.2933900044    
AX         1.261771814        -1.212523396       -0.8461051731    
AX        -1.277823141       -0.4698757193        0.1514531601    
AX       -0.5420786080E-03     1.160589515        -1.509165536    
AX         1.313799027        0.2206966925        0.7679435596    
AX        -1.342303331        0.6794407146E-01     1.108580536    
AX       -0.3896994698        0.6478943863         1.309022747    
AX        0.7327598684         1.413976486        0.1007287821    
AX       -0.1916032215         1.672994651       -0.5178646306    
AX       -0.9451407791        -1.234467961       -0.5662984787    
AX        0.6558453213         1.101513437         1.241885933    
AX       -0.4887639071       -0.9525403495        -1.519115520    
AX        -1.199060062         1.501799193       -0.1121071644    
AX       -0.8403853628        0.7988028404       -0.8764772148    
AX        -1.297336607         1.146092823        0.9138141402    
AX        0.8624221661        -1.520905222        0.1629903665    
AX        -1.192221822       -0.2296371756       -0.9537541325    
AX         1.258258851        0.5247759555       -0.2823234738    
AX       -0.5342682415       -0.3484959061         1.822966833    
AX        0.1529711906        -1.090596723         1.271333457    
AX        0.6224822298       -0.6946859444        -1.633754899    
AX         1.688400185       -0.2038023279        -1.058000465    
AX       -0.2598191038         1.446541370        0.5670695309    
AX        0.1752466974        -1.236359792       -0.6921080395    
AX        0.1880543914        0.6699096097       -0.5499755628    
AX         1.552009982       -0.5581208553        0.3978357789E-02
AX       -0.1575696494        0.5569218978E-01    -1.355446412    
AX        0.4745595488       -0.5005295239E-01     1.406498531    
AX        -1.715782832        0.4876371623       -0.2251090809    
AX        -1.042113406        -1.061524789         1.100958982    
AX       -0.3934851635       -0.2843444244        0.7601151435    
AX        0.5379153167       -0.5364099810        0.3624156245    
AX        0.3055589853        0.4812892976        0.4607892478    
AX        0.6889948360       -0.2916849786       -0.6518579943    
AX       -0.3146705179       -0.3138658733       -0.3255909216    
AX       -0.7286237891        0.5467369892        0.1831536428    
    38
Energy=    -169.205253906211    
AX        0.8763042017        0.4723542280        -1.395514587    
AX         1.251488281       -0.8652489834         1.081480742    
AX       -0.2876303149        -1.262097486        0.2933900183    
AX         1.261771802        -1.212523423       -0.8461051694    
AX        -1.277823158       -0.4698756795        0.1514531534    
AX       -0.5420792951E-03     1.160589507        -1.509165550    
AX         1.313799001        0.2206967357        0.7679435417    
AX        -1.342303353        0.6794406285E-01     1.108580566    
AX       -0.3896994903        0.6478943783         1.309022745    
AX        0.7327598949         1.413976440        0.1007287695    
AX       -0.1916032227         1.672994656       -0.5178646244    
AX       -0.9451407958        -1.234467944       -0.5662984443    
AX        0.6558453198         1.101513418         1.241885905    
AX       -0.4887639105       -0.9525403518        -1.519115480    
AX        -1.199060069         1.501799214       -0.1121071347    
AX       -0.8403853551        0.7988028725       -0.8764771999    
AX        -1.297336615         1.146092828        0.9138141593    
AX        0.8624221744        -1.520905207        0.1629903927    
AX        -1.192221837       -0.2296371416       -0.9537541475    
AX         1.258258883        0.5247759355       -0.2823235114    
AX       -0.5342682440       -0.3484959454         1.822966814    
AX        0.1529712562        -1.090596727         1.271333445    
AX        0.6224822597       -0.6946859382        -1.633754893    
AX         1.688400180       -0.2038023550        -1.058000478    
AX       -0.2598190870         1.446541341        0.5670695163    
AX        0.1752466916        -1.236359804       -0.6921080208    
AX        0.1880544074        0.6699096097       -0.5499755705    
AX         1.552009978       -0.5581208538        0.3978353651E-02
AX       -0.1575696352        0.5569218993E-01    -1.355446411    
AX        0.4745595401       -0.5005294073E-01     1.406498535    
AX        -1.715782865        0.4876371966       -0.2251091170    
AX        -1.042113408        -1.061524829         1.100958931    
AX       -0.3934851782       -0.2843444599        0.7601151432    
AX        0.5379153209       -0.5364099859        0.3624156463    
AX        0.3055589535        0.4812892996        0.4607892386    
AX        0.6889948484       -0.2916849693       -0.6518579884    
AX       -0.3146705361       -0.3138658728       -0.3255909274    
AX       -0.7286238409        0.5467369854        0.1831536391    
    38
Energy=    -169.205253906208    
AX        0.8763042264        0.4723542484        -1.395514577    
AX         1.251488330       -0.8652488985         1.081480760    
AX       -0.2876302854        -1.262097509        0.2933900230    
AX         1.261771778        -1.212523482       -0.8461051181    
AX        -1.277823187       -0.4698756439        0.1514531417    
AX       -0.5420761196E-03     1.160589511        -1.509165560    
AX         1.313798978        0.2206968339        0.7679435053    
AX        -1.342303383        0.6794403641E-01     1.108580589    
AX       -0.3896995188        0.6478943581         1.309022738    
AX        0.7327599352         1.413976375        0.1007287811    
AX       -0.1916032166         1.672994651       -0.5178646049    
AX       -0.9451408155        -1.234467929       -0.5662984154    
AX        0.6558453211         1.101513371         1.241885895    
AX       -0.4887639008       -0.9525403423        -1.519115430    
AX        -1.199060078         1.501799241       -0.1121071104    
AX       -0.8403853464        0.7988029172       -0.8764771821    
AX        -1.297336636         1.146092810        0.9138141544    
AX        0.8624221684        -1.520905211        0.1629904806    
AX        -1.192221867       -0.2296370874       -0.9537541708    
AX         1.258258937        0.5247759305       -0.2823235874    
AX       -0.5342682480       -0.3484960066         1.822966789    
AX        0.1529713675        -1.090596739         1.271333404    
AX        0.6224823124       -0.6946859372        -1.633754869    
AX         1.688400162       -0.2038024274        -1.058000536    
AX       -0.2598190674         1.446541328        0.5670695249    
AX        0.1752466918        -1.236359801       -0.6921079867    
AX        0.1880544197        0.6699096151       -0.5499755951    
AX         1.552009988       -0.5581208330        0.3978352323E-02
AX       -0.1575696243        0.5569220142E-01    -1.355446413    
AX        0.4745595342       -0.5005291880E-01     1.406498521    
AX        -1.715782918        0.4876372587       -0.2251091226    
AX        -1.042113420        -1.061524881         1.100958870    
AX       -0.3934852012       -0.2843444768        0.7601151390    
AX        0.5379153333       -0.5364099639        0.3624156426    
AX        0.3055589041        0.4812892762        0.4607892314    
AX        0.6889948346       -0.2916849820       -0.6518579652    
AX       -0.3146705465       -0.3138658682       -0.3255909442    
AX       -0.7286238852        0.5467369751        0.1831536452    
    38
Energy=    -169.205253906204    
AX        0.8763042413        0.4723542419        -1.395514589    
AX         1.251488366       -0.8652488074         1.081480771    
AX       -0.2876302667        -1.262097530        0.2933900285    
AX         1.261771759        -1.212523540       -0.8461050574    
AX        -1.277823219       -0.4698756055        0.1514531343    
AX       -0.5420582156E-03     1.160589521        -1.509165566    
AX         1.313798952        0.2206969434        0.7679434516    
AX        -1.342303405        0.6794399618E-01     1.108580624    
AX       -0.3896995487        0.6478943358         1.309022737    
AX        0.7327599686         1.413976315        0.1007288280    
AX       -0.1916031900         1.672994650       -0.5178645858    
AX       -0.9451408313        -1.234467902       -0.5662983924    
AX        0.6558453023         1.101513317         1.241885885    
AX       -0.4887638882       -0.9525403288        -1.519115390    
AX        -1.199060068         1.501799264       -0.1121070990    
AX       -0.8403853267        0.7988029537       -0.8764771647    
AX        -1.297336673         1.146092770        0.9138141354    
AX        0.8624221640        -1.520905219        0.1629905742    
AX        -1.192221884       -0.2296370359       -0.9537541844    
AX         1.258258986        0.5247759337       -0.2823236871    
AX       -0.5342682396       -0.3484960704         1.822966783    
AX        0.1529714674        -1.090596751         1.271333361    
AX        0.6224823543       -0.6946859449        -1.633754849    
AX         1.688400137       -0.2038025103        -1.058000603    
AX       -0.2598190665         1.446541320        0.5670695422    
AX        0.1752466889        -1.236359797       -0.6921079522    
AX        0.1880544416        0.6699096190       -0.5499756358    
AX         1.552009999       -0.5581208030        0.3978350026E-02
AX       -0.1575696162        0.5569222087E-01    -1.355446412    
AX        0.4745595346       -0.5005289765E-01     1.406498497    
AX        -1.715782966        0.4876373289       -0.2251091368    
AX        -1.042113436        -1.061524920         1.100958833    
AX       -0.3934852252       -0.2843445053        0.7601151384    
AX        0.5379153491       -0.5364099608        0.3624156292    
AX        0.3055588534        0.4812892613        0.4607892354    
AX        0.6889948414       -0.2916849669       -0.6518579448    
AX       -0.3146705642       -0.3138658555       -0.3255909438    
AX       -0.7286239352        0.5467369592        0.1831536555    
    38
Energy=    -169.205253906196    
AX        0.8763043160        0.4723541803        -1.395514627    
AX         1.251488437       -0.8652486322         1.081480762    
AX       -0.2876302385        -1.262097603        0.2933900611    
AX         1.261771741        -1.212523563       -0.8461050555    
AX        -1.277823363       -0.4698754628        0.1514531702    
AX       -0.5419719128E-03     1.160589485        -1.509165626    
AX         1.313798835        0.2206970525        0.7679433215    
AX        -1.342303391        0.6794393264E-01     1.108580802    
AX       -0.3896996199        0.6478942919         1.309022755    
AX        0.7327599876         1.413976192        0.1007290169    
AX       -0.1916030656         1.672994670       -0.5178646383    
AX       -0.9451408116        -1.234467744       -0.5662983364    
AX        0.6558452240         1.101513328         1.241885774    
AX       -0.4887639070       -0.9525402584        -1.519115396    
AX        -1.199059967         1.501799268       -0.1121070958    
AX       -0.8403852219        0.7988029575       -0.8764771176    
AX        -1.297336783         1.146092732        0.9138141702    
AX        0.8624223267        -1.520905191        0.1629906147    
AX        -1.192221867       -0.2296369659       -0.9537541346    
AX         1.258259060        0.5247759311       -0.2823238060    
AX       -0.5342681104       -0.3484962021         1.822966829    
AX        0.1529715724        -1.090596752         1.271333325    
AX        0.6224823192       -0.6946859204        -1.633754889    
AX         1.688400166       -0.2038026358        -1.058000624    
AX       -0.2598191875         1.446541269        0.5670694885    
AX        0.1752466828        -1.236359772       -0.6921079354    
AX        0.1880545531        0.6699096351       -0.5499756228    
AX         1.552010015       -0.5581208163        0.3978359681E-02
AX       -0.1575695898        0.5569223642E-01    -1.355446382    
AX        0.4745595223       -0.5005286639E-01     1.406498461    
AX        -1.715783063        0.4876374870       -0.2251093638    
AX        -1.042113454        -1.061524973         1.100958893    
AX       -0.3934852567       -0.2843446358        0.7601151753    
AX        0.5379153060       -0.5364099690        0.3624156019    
AX        0.3055586707        0.4812892063        0.4607891794    
AX        0.6889948187       -0.2916849808       -0.6518579472    
AX       -0.3146705342       -0.3138658091       -0.3255908888    
AX       -0.7286241511        0.5467368999        0.1831537269    
    38
Energy=    -169.205253906186    
AX        0.8763043595        0.4723541151        -1.395514670    
AX         1.251488480       -0.8652485032         1.081480743    
AX       -0.2876302342        -1.262097665        0.2933900794    
AX         1.261771731        -1.212523561       -0.8461050542    
AX        -1.277823460       -0.4698753468        0.1514531991    
AX       -0.5418981520E-03     1.160589460        -1.509165660    
AX         1.313798743        0.2206971267        0.7679432125    
AX        -1.342303366        0.6794386843E-01     1.108580944    
AX       -0.3896996721        0.6478942447         1.309022763    
AX        0.7327600023         1.413976114        0.1007291701    
AX       -0.1916029586         1.672994686       -0.5178646777    
AX       -0.9451407989        -1.234467618       -0.5662982902    
AX        0.6558451478         1.101513334         1.241885692    
AX       -0.4887639201       -0.9525402130        -1.519115402    
AX        -1.199059883         1.501799275       -0.1121070995    
AX       -0.8403851282        0.7988029568       -0.8764770939    
AX        -1.297336877         1.146092688        0.9138141938    
AX        0.8624224431        -1.520905169        0.1629906325    
AX        -1.192221835       -0.2296369211       -0.9537540877    
AX         1.258259123        0.5247759398       -0.2823239038    
AX       -0.5342680067       -0.3484962963         1.822966878    
AX        0.1529716371        -1.090596757         1.271333314    
AX        0.6224822829       -0.6946859070        -1.633754910    
AX         1.688400179       -0.2038027224        -1.058000636    
AX       -0.2598192872         1.446541231        0.5670694498    
AX        0.1752466792        -1.236359755       -0.6921079196    
AX        0.1880546216        0.6699096678       -0.5499756670    
AX         1.552010019       -0.5581208203        0.3978366841E-02
AX       -0.1575695683        0.5569225585E-01    -1.355446354    
AX        0.4745595179       -0.5005284101E-01     1.406498424    
AX        -1.715783131        0.4876376004       -0.2251095511    
AX        -1.042113477        -1.061525011         1.100958959    
AX       -0.3934853052       -0.2843446763        0.7601151950    
AX        0.5379153030       -0.5364099965        0.3624155877    
AX        0.3055585265        0.4812891463        0.4607891858    
AX        0.6889948421       -0.2916849845       -0.6518579808    
AX       -0.3146705485       -0.3138657644       -0.3255908227    
AX       -0.7286242832        0.5467368197        0.1831537928    
    38
Energy=    -169.205253906178    
AX        0.8763043875        0.4723540694        -1.395514698    
AX         1.251488488       -0.8652484953         1.081480720    
AX       -0.2876302444        -1.262097693        0.2933901060    
AX         1.261771740        -1.212523501       -0.8461051423    
AX        -1.277823492       -0.4698752800        0.1514532361    
AX       -0.5418539022E-03     1.160589421        -1.509165691    
AX         1.313798682        0.2206970671        0.7679431762    
AX        -1.342303338        0.6794386193E-01     1.108581060    
AX       -0.3896996935        0.6478942372         1.309022770    
AX        0.7327599819         1.413976103        0.1007292399    
AX       -0.1916028962         1.672994713       -0.5178647240    
AX       -0.9451407742        -1.234467548       -0.5662982647    
AX        0.6558450937         1.101513401         1.241885624    
AX       -0.4887639565       -0.9525402052        -1.519115441    
AX        -1.199059822         1.501799265       -0.1121070976    
AX       -0.8403850591        0.7988029362       -0.8764770871    
AX        -1.297336923         1.146092702        0.9138142394    
AX        0.8624225497        -1.520905132        0.1629905237    
AX        -1.192221799       -0.2296369262       -0.9537540475    
AX         1.258259126        0.5247759433       -0.2823238842    
AX       -0.5342679213       -0.3484963008         1.822966924    
AX        0.1529715883        -1.090596756         1.271333366    