    38
Energy=    -169.205253906214    
AX        0.8755782480        0.4693299733        -1.396989785    
AX         1.252505739       -0.8611416562         1.083579116    
AX       -0.2864159963        -1.261551051        0.2969065369    
AX         1.262699884        -1.213684266       -0.8430507602    
AX        -1.277361455       -0.4706252084        0.1530121733    
AX       -0.1920056362E-02     1.156450894        -1.512338103    
AX         1.313759013        0.2239977268        0.7670560465    
AX        -1.342130992        0.6975490031E-01     1.108676819    
AX       -0.3900148538        0.6511213063         1.307326605    
AX        0.7314896448         1.414915219        0.9669976727E-01
AX       -0.1932399718         1.671394519       -0.5224034978    
AX       -0.9441326239        -1.236876279       -0.5627141454    
AX        0.6551011945         1.105508639         1.238724800    
AX       -0.4882144056       -0.9571427788        -1.516397056    
AX        -1.200454497         1.500391724       -0.1159638443    
AX       -0.8412992843        0.7956321527       -0.8784822444    
AX        -1.298189985         1.147406673        0.9109485494    
AX        0.8638447350        -1.519665502        0.1669707628    
AX        -1.192212869       -0.2333362357       -0.9528671432    
AX         1.257719443        0.5251486582       -0.2840278514    
AX       -0.5335651993       -0.3439891325         1.824028435    
AX        0.1542350692        -1.086970655         1.274282608    
AX        0.6227716789       -0.6985894126        -1.631979225    
AX         1.688362474       -0.2051583649        -1.057798494    
AX       -0.2610203007         1.447851437        0.5631613349    
AX        0.1762294760        -1.238090237       -0.6887571146    
AX        0.1873265644        0.6685721388       -0.5518481638    
AX         1.552519744       -0.5566915420        0.5175619050E-02
AX       -0.1579062840        0.5183594931E-01    -1.355560179    
AX        0.4749016991       -0.4576756396E-01     1.406529079    
AX        -1.716274758        0.4854528394       -0.2260771255    
AX        -1.040911172        -1.059456052         1.104084552    
AX       -0.3930649931       -0.2826204309        0.7609749736    
AX        0.5384813185       -0.5349242540        0.3637684367    
AX        0.3052167151        0.4828282082        0.4594043412    
AX        0.6891233976       -0.2928403568       -0.6512038061    
AX       -0.3144524659       -0.3150434625       -0.3246630429    
AX       -0.7290838759        0.5465714835        0.1818110266    
    38
Energy=    -169.205253906213    
AX        0.8755782603        0.4693299777        -1.396989773    
AX         1.252505732       -0.8611416583         1.083579114    
AX       -0.2864159967        -1.261551044        0.2969065318    
AX         1.262699872        -1.213684267       -0.8430507816    
AX        -1.277361454       -0.4706252143        0.1530121783    
AX       -0.1920060642E-02     1.156450893        -1.512338107    
AX         1.313759008        0.2239977278        0.7670560471    
AX        -1.342130993        0.6975489609E-01     1.108676822    
AX       -0.3900148509        0.6511213136         1.307326610    
AX        0.7314896470         1.414915218        0.9669976360E-01
AX       -0.1932399793         1.671394509       -0.5224035082    
AX       -0.9441326277        -1.236876273       -0.5627141485    
AX        0.6551012047         1.105508640         1.238724800    
AX       -0.4882144160       -0.9571427804        -1.516397065    
AX        -1.200454506         1.500391710       -0.1159638575    
AX       -0.8412992766        0.7956321365       -0.8784822408    
AX        -1.298189985         1.147406678        0.9109485532    
AX        0.8638447352        -1.519665506        0.1669707646    
AX        -1.192212864       -0.2333362368       -0.9528671465    
AX         1.257719439        0.5251486542       -0.2840278444    
AX       -0.5335652018       -0.3439891308         1.824028431    
AX        0.1542350715        -1.086970650         1.274282601    
AX        0.6227716808       -0.6985893958        -1.631979229    
AX         1.688362485       -0.2051583707        -1.057798482    
AX       -0.2610202964         1.447851445        0.5631613316    
AX        0.1762294692        -1.238090227       -0.6887571207    
AX        0.1873265687        0.6685721372       -0.5518481601    
AX         1.552519740       -0.5566915555        0.5175616971E-02
AX       -0.1579062714        0.5183594298E-01    -1.355560179    
AX        0.4749017038       -0.4576756086E-01     1.406529091    
AX        -1.716274765        0.4854528314       -0.2260771291    
AX        -1.040911156        -1.059456052         1.104084563    
AX       -0.3930649970       -0.2826204328        0.7609749793    
AX        0.5384813239       -0.5349242627        0.3637684360    
AX        0.3052167120        0.4828282201        0.4594043462    
AX        0.6891234070       -0.2928403526       -0.6512038079    
AX       -0.3144524718       -0.3150434488       -0.3246630376    
AX       -0.7290838908        0.5465714887        0.1818110378    
    38
Energy=    -169.205253906211    
AX        0.8755782605        0.4693299859        -1.396989786    
AX         1.252505683       -0.8611416939         1.083579106    
AX       -0.2864160040        -1.261551040        0.2969065140    
AX         1.262699908        -1.213684236       -0.8430507605    
AX        -1.277361485       -0.4706252052        0.1530122074    
AX       -0.1920037006E-02     1.156450919        -1.512338094    
AX         1.313759036        0.2239977090        0.7670560872    
AX        -1.342130980        0.6975479238E-01     1.108676913    
AX       -0.3900148791        0.6511213231         1.307326549    
AX        0.7314896412         1.414915239        0.9669974503E-01
AX       -0.1932399228         1.671394520       -0.5224035161    
AX       -0.9441326811        -1.236876279       -0.5627141157    
AX        0.6551011764         1.105508666         1.238724821    
AX       -0.4882144522       -0.9571427596        -1.516396987    
AX        -1.200454444         1.500391772       -0.1159639026    
AX       -0.8412992836        0.7956321859       -0.8784822841    
AX        -1.298190119         1.147406490        0.9109483684    
AX        0.8638447818        -1.519665504        0.1669707636    
AX        -1.192212895       -0.2333361821       -0.9528670855    
AX         1.257719430        0.5251486471       -0.2840278012    
AX       -0.5335651319       -0.3439891090         1.824028417    
AX        0.1542350372        -1.086970669         1.274282589    
AX        0.6227716342       -0.6985894498        -1.631979225    
AX         1.688362506       -0.2051583276        -1.057798443    
AX       -0.2610203213         1.447851463        0.5631613232    
AX        0.1762294956        -1.238090258       -0.6887571149    
AX        0.1873265560        0.6685721244       -0.5518481651    
AX         1.552519745       -0.5566915363        0.5175640520E-02
AX       -0.1579062844        0.5183596794E-01    -1.355560200    
AX        0.4749016949       -0.4576757578E-01     1.406529063    
AX        -1.716274751        0.4854529295       -0.2260769760    
AX        -1.040911112        -1.059456075         1.104084608    
AX       -0.3930649928       -0.2826204085        0.7609749360    
AX        0.5384813127       -0.5349242616        0.3637683988    
AX        0.3052167517        0.4828282214        0.4594043506    
AX        0.6891233792       -0.2928403708       -0.6512038250    
AX       -0.3144524639       -0.3150435011       -0.3246630765    
AX       -0.7290837868        0.5465714855        0.1818109552    
    38
Energy=    -169.205253906210    
AX        0.8755782571        0.4693299888        -1.396989791    
AX         1.252505653       -0.8611417127         1.083579100    
AX       -0.2864160058        -1.261551036        0.2969065069    
AX         1.262699934        -1.213684214       -0.8430507365    
AX        -1.277361508       -0.4706251945        0.1530122243    
AX       -0.1920018873E-02     1.156450933        -1.512338082    
AX         1.313759054        0.2239976948        0.7670561140    
AX        -1.342130965        0.6975472574E-01     1.108676974    
AX       -0.3900149006        0.6511213308         1.307326507    
AX        0.7314896349         1.414915250        0.9669973132E-01
AX       -0.1932398823         1.671394533       -0.5224035149    
AX       -0.9441327177        -1.236876285       -0.5627140872    
AX        0.6551011534         1.105508681         1.238724833    
AX       -0.4882144744       -0.9571427481        -1.516396928    
AX        -1.200454399         1.500391818       -0.1159639267    
AX       -0.8412992929        0.7956322293       -0.8784823115    
AX        -1.298190215         1.147406359        0.9109482370    
AX        0.8638448159        -1.519665495        0.1669707626    
AX        -1.192212910       -0.2333361438       -0.9528670400    
AX         1.257719423        0.5251486313       -0.2840277807    
AX       -0.5335650807       -0.3439890955         1.824028403    
AX        0.1542350145        -1.086970683         1.274282581    
AX        0.6227716004       -0.6985894892        -1.631979227    
AX         1.688362506       -0.2051582959        -1.057798412    
AX       -0.2610203403         1.447851471        0.5631613172    
AX        0.1762295089        -1.238090290       -0.6887571094    
AX        0.1873265527        0.6685721134       -0.5518481631    
AX         1.552519748       -0.5566915208        0.5175658162E-02
AX       -0.1579063003        0.5183598499E-01    -1.355560214    
AX        0.4749016866       -0.4576758883E-01     1.406529038    
AX        -1.716274733        0.4854530015       -0.2260768740    
AX        -1.040911084        -1.059456090         1.104084629    
AX       -0.3930650014       -0.2826204158        0.7609749153    
AX        0.5384813134       -0.5349242669        0.3637683822    
AX        0.3052167931        0.4828282328        0.4594043501    
AX        0.6891233869       -0.2928403600       -0.6512038501    
AX       -0.3144524809       -0.3150435426       -0.3246630980    
AX       -0.7290837259        0.5465714884        0.1818108818    
    38
Energy=    -169.205253906208    
AX        0.8755782407        0.4693299900        -1.396989806    
AX         1.252505649       -0.8611417218         1.083579102    
AX       -0.2864160033        -1.261551065        0.2969065158    
AX         1.262699960        -1.213684196       -0.8430506979    
AX        -1.277361513       -0.4706251639        0.1530122302    
AX       -0.1919992544E-02     1.156450944        -1.512338076    
AX         1.313759083        0.2239976828        0.7670561366    
AX        -1.342130964        0.6975467032E-01     1.108677024    
AX       -0.3900149285        0.6511213229         1.307326467    
AX        0.7314896264         1.414915254        0.9669972933E-01
AX       -0.1932398368         1.671394560       -0.5224035040    
AX       -0.9441327440        -1.236876292       -0.5627140577    
AX        0.6551011217         1.105508691         1.238724842    
AX       -0.4882144820       -0.9571427349        -1.516396869    
AX        -1.200454354         1.500391883       -0.1159639333    
AX       -0.8412993162        0.7956322900       -0.8784823450    
AX        -1.298190287         1.147406245        0.9109481232    
AX        0.8638448399        -1.519665476        0.1669707650    
AX        -1.192212941       -0.2333361106       -0.9528669980    
AX         1.257719417        0.5251486236       -0.2840277722    
AX       -0.5335650447       -0.3439890929         1.824028410    
AX        0.1542350016        -1.086970696         1.274282580    
AX        0.6227715660       -0.6985895369        -1.631979227    
AX         1.688362499       -0.2051582593        -1.057798402    
AX       -0.2610203628         1.447851462        0.5631613132    
AX        0.1762295234        -1.238090328       -0.6887570908    
AX        0.1873265350        0.6685721066       -0.5518481651    
AX         1.552519759       -0.5566914963        0.5175673923E-02
AX       -0.1579063310        0.5183600554E-01    -1.355560221    
AX        0.4749016732       -0.4576759868E-01     1.406529005    
AX        -1.716274707        0.4854530701       -0.2260767943    
AX        -1.040911072        -1.059456099         1.104084618    
AX       -0.3930649969       -0.2826204213        0.7609748936    
AX        0.5384813062       -0.5349242607        0.3637683734    
AX        0.3052168323        0.4828282280        0.4594043427    
AX        0.6891233806       -0.2928403607       -0.6512038669    
AX       -0.3144524810       -0.3150436022       -0.3246631211    
AX       -0.7290836559        0.5465714841        0.1818108011    
    38
Energy=    -169.205253906206    
AX        0.8755782356        0.4693299959        -1.396989809    
AX         1.252505654       -0.8611417209         1.083579105    
AX       -0.2864160040        -1.261551083        0.2969065246    
AX         1.262699964        -1.213684188       -0.8430506794    
AX        -1.277361515       -0.4706251509        0.1530122302    
AX       -0.1919984052E-02     1.156450944        -1.512338074    
AX         1.313759093        0.2239976776        0.7670561409    
AX        -1.342130964        0.6975465870E-01     1.108677036    
AX       -0.3900149389        0.6511213187         1.307326452    
AX        0.7314896242         1.414915251        0.9669972629E-01
AX       -0.1932398236         1.671394574       -0.5224034962    
AX       -0.9441327533        -1.236876295       -0.5627140458    
AX        0.6551011131         1.105508690         1.238724841    
AX       -0.4882144789       -0.9571427345        -1.516396848    
AX        -1.200454343         1.500391908       -0.1159639301    
AX       -0.8412993262        0.7956323158       -0.8784823527    
AX        -1.298190309         1.147406214        0.9109480885    
AX        0.8638448492        -1.519665469        0.1669707691    
AX        -1.192212949       -0.2333361006       -0.9528669857    
AX         1.257719421        0.5251486186       -0.2840277752    
AX       -0.5335650330       -0.3439890926         1.824028416    
AX        0.1542350002        -1.086970703         1.274282580    
AX        0.6227715564       -0.6985895478        -1.631979232    
AX         1.688362492       -0.2051582459        -1.057798399    
AX       -0.2610203713         1.447851454        0.5631613099    
AX        0.1762295247        -1.238090339       -0.6887570770    
AX        0.1873265299        0.6685721069       -0.5518481667    
AX         1.552519765       -0.5566914897        0.5175680163E-02
AX       -0.1579063439        0.5183601125E-01    -1.355560217    
AX        0.4749016669       -0.4576760451E-01     1.406528986    
AX        -1.716274695        0.4854530898       -0.2260767781    
AX        -1.040911070        -1.059456103         1.104084608    
AX       -0.3930649915       -0.2826204322        0.7609748875    
AX        0.5384812978       -0.5349242544        0.3637683728    
AX        0.3052168484        0.4828282199        0.4594043380    
AX        0.6891233809       -0.2928403524       -0.6512038735    
AX       -0.3144524830       -0.3150436247       -0.3246631242    
AX       -0.7290836388        0.5465714835        0.1818107719    
    38
Energy=    -169.205253906197    
AX        0.8755782460        0.4693300086        -1.396989788    
AX         1.252505674       -0.8611417098         1.083579117    
AX       -0.2864159858        -1.261551082        0.2969065291    
AX         1.262699950        -1.213684191       -0.8430506881    
AX        -1.277361538       -0.4706251401        0.1530122298    
AX       -0.1919980697E-02     1.156450925        -1.512338065    
AX         1.313759080        0.2239976807        0.7670561347    
AX        -1.342130963        0.6975467915E-01     1.108677038    
AX       -0.3900149432        0.6511213265         1.307326455    
AX        0.7314896305         1.414915242        0.9669970987E-01
AX       -0.1932398328         1.671394572       -0.5224034905    
AX       -0.9441327599        -1.236876293       -0.5627140282    
AX        0.6551011251         1.105508686         1.238724838    
AX       -0.4882144904       -0.9571427450        -1.516396849    
AX        -1.200454356         1.500391906       -0.1159639254    
AX       -0.8412993186        0.7956323162       -0.8784823357    
AX        -1.298190317         1.147406232        0.9109480925    
AX        0.8638448629        -1.519665463        0.1669707586    
AX        -1.192212937       -0.2333361048       -0.9528669909    
AX         1.257719437        0.5251485971       -0.2840277828    
AX       -0.5335650247       -0.3439891020         1.824028410    
AX        0.1542350128        -1.086970707         1.274282572    
AX        0.6227715568       -0.6985895301        -1.631979256    
AX         1.688362492       -0.2051582523        -1.057798386    
AX       -0.2610203757         1.447851455        0.5631613052    
AX        0.1762295078        -1.238090337       -0.6887570848    
AX        0.1873265353        0.6685721002       -0.5518481846    
AX         1.552519775       -0.5566915072        0.5175680169E-02
AX       -0.1579063400        0.5183600483E-01    -1.355560196    
AX        0.4749016602       -0.4576760447E-01     1.406528972    
AX        -1.716274686        0.4854530891       -0.2260768206    
AX        -1.040911066        -1.059456115         1.104084591    
AX       -0.3930649555       -0.2826204761        0.7609748917    
AX        0.5384812536       -0.5349241874        0.3637683873    
AX        0.3052168660        0.4828281889        0.4594043732    
AX        0.6891233756       -0.2928403399       -0.6512038645    
AX       -0.3144524760       -0.3150436281       -0.3246631133    
AX       -0.7290836935        0.5465715068        0.1818107646    
    38
Energy=    -169.205253906200    
AX        0.8755781631        0.4693298966        -1.396989830    
AX         1.252505662       -0.8611417366         1.083579119    
AX       -0.2864158879        -1.261551136        0.2969065175    
AX         1.262700081        -1.213684180       -0.8430506878    
AX        -1.277361503       -0.4706250085        0.1530122337    
AX       -0.1919879598E-02     1.156451012        -1.512338070    
AX         1.313759164        0.2239977006        0.7670562319    
AX        -1.342131007        0.6975443080E-01     1.108677219    
AX       -0.3900150286        0.6511212818         1.307326419    
AX        0.7314896001         1.414915299        0.9669978471E-01
AX       -0.1932396601         1.671394598       -0.5224035171    
AX       -0.9441327944        -1.236876279       -0.5627139442    
AX        0.6551009831         1.105508763         1.238724948    
AX       -0.4882145987       -0.9571426561        -1.516396704    
AX        -1.200454168         1.500392058       -0.1159640027    
AX       -0.8412993998        0.7956324546       -0.8784825244    
AX        -1.298190436         1.147405877        0.9109477871    
AX        0.8638448861        -1.519665411        0.1669707445    
AX        -1.192213069       -0.2333359898       -0.9528668567    
AX         1.257719256        0.5251485975       -0.2840277067    
AX       -0.5335650045       -0.3439891596         1.824028413    
AX        0.1542350079        -1.086970659         1.274282585    
AX        0.6227714032       -0.6985897283        -1.631979189    
AX         1.688362514       -0.2051581759        -1.057798399    
AX       -0.2610204163         1.447851460        0.5631613316    
AX        0.1762295820        -1.238090519       -0.6887571335    
AX        0.1873264283        0.6685720231       -0.5518481332    
AX         1.552519795       -0.5566914112        0.5175682372E-02
AX       -0.1579064229        0.5183606319E-01    -1.355560280    
AX        0.4749016619       -0.4576756435E-01     1.406529009    
AX        -1.716274666        0.4854533426       -0.2260765589    
AX        -1.040911019        -1.059456122         1.104084511    
AX       -0.3930649767       -0.2826203939        0.7609748281    
AX        0.5384813367       -0.5349242111        0.3637683906    
AX        0.3052169242        0.4828282719        0.4594043603    
AX        0.6891233796       -0.2928404542       -0.6512038966    
AX       -0.3144524607       -0.3150438080       -0.3246632138    
AX       -0.7290834303        0.5465714740        0.1818105329    
    38
Energy=    -169.205253906196    
AX        0.8755781365        0.4693298396        -1.396989827    
AX         1.252505662       -0.8611417445         1.083579125    
AX       -0.2864158238        -1.261551132        0.2969065010    
AX         1.262700133        -1.213684186       -0.8430507216    
AX        -1.277361503       -0.4706249543        0.1530122361    
AX       -0.1919838259E-02     1.156451041        -1.512338066    
AX         1.313759180        0.2239977205        0.7670562711    
AX        -1.342131027        0.6975433534E-01     1.108677295    
AX       -0.3900150599        0.6511212736         1.307326424    
AX        0.7314895930         1.414915329        0.9669981372E-01
AX       -0.1932395985         1.671394588       -0.5224035381    
AX       -0.9441328045        -1.236876267       -0.5627139049    
AX        0.6551009322         1.105508800         1.238725004    
AX       -0.4882146685       -0.9571426198        -1.516396660    
AX        -1.200454096         1.500392093       -0.1159640443    
AX       -0.8412994201        0.7956324869       -0.8784825948    
AX        -1.298190473         1.147405752        0.9109476808    
AX        0.8638448968        -1.519665394        0.1669707225    
AX        -1.192213114       -0.2333359481       -0.9528668088    
AX         1.257719168        0.5251485843       -0.2840276699    
AX       -0.5335650028       -0.3439891952         1.824028398    
AX        0.1542350149        -1.086970626         1.274282585    
AX        0.6227713389       -0.6985898006        -1.631979169    
AX         1.688362534       -0.2051581611        -1.057798398    
AX       -0.2610204282         1.447851477        0.5631613461    
AX        0.1762296034        -1.238090596       -0.6887571857    
AX        0.1873263870        0.6685719769       -0.5518481243    
AX         1.552519805       -0.5566913853        0.5175674192E-02
AX       -0.1579064425        0.5183608106E-01    -1.355560311    
AX        0.4749016670       -0.4576753532E-01     1.406529042    
AX        -1.716274666        0.4854534440       -0.2260764765    
AX        -1.040910991        -1.059456129         1.104084474    
AX       -0.3930649681       -0.2826203783        0.7609748117    
AX        0.5384813548       -0.5349241761        0.3637684049    
AX        0.3052169537        0.4828282998        0.4594043951    
AX        0.6891233857       -0.2928405057       -0.6512038975    
AX       -0.3144524502       -0.3150438689       -0.3246632522    
AX       -0.7290833714        0.5465714815        0.1818104460    
    38
Energy=    -169.205253906192    
AX        0.8755781260        0.4693297917        -1.396989822    
AX         1.252505646       -0.8611417592         1.083579124    
AX       -0.2864157827        -1.261551102        0.2969064734    
AX         1.262700176        -1.213684198       -0.8430507647    
AX        -1.277361501       -0.4706249345        0.1530122422    
AX       -0.1919817286E-02     1.156451063        -1.512338062    
AX         1.313759179        0.2239977368        0.7670562966    
AX        -1.342131038        0.6975427580E-01     1.108677344    
AX       -0.3900150719        0.6511212760         1.307326439    
AX        0.7314895890         1.414915358        0.9669983420E-01
AX       -0.1932395690         1.671394564       -0.5224035625    
AX       -0.9441328046        -1.236876258       -0.5627138928    
AX        0.6551009060         1.105508827         1.238725042    
AX       -0.4882147229       -0.9571425887        -1.516396648    
AX        -1.200454056         1.500392091       -0.1159640799    
AX       -0.8412994178        0.7956324748       -0.8784826312    
AX        -1.298190488         1.147405689        0.9109476351    
AX        0.8638448952        -1.519665385        0.1669706946    
AX        -1.192213143       -0.2333359313       -0.9528667855    
AX         1.257719103        0.5251485795       -0.2840276373    
AX       -0.5335650021       -0.3439892149         1.824028382    
AX        0.1542350123        -1.086970599         1.274282584    
AX        0.6227713063       -0.6985898474        -1.631979147    
AX         1.688362558       -0.2051581637        -1.057798400    
AX       -0.2610204302         1.447851504        0.5631613602    
AX        0.1762296204        -1.238090639       -0.6887572422    
AX        0.1873263668        0.6685719455       -0.5518481264    
AX         1.552519803       -0.5566913723        0.5175664504E-02
AX       -0.1579064379        0.5183609212E-01    -1.355560340    
AX        0.4749016759       -0.4576751029E-01     1.406529081    
AX        -1.716274678        0.4854534961       -0.2260764242    
AX        -1.040910969        -1.059456130         1.104084471    
AX       -0.3930649739       -0.2826203497        0.7609748059    
AX        0.5384813791       -0.5349241612        0.3637684124    
AX        0.3052169589        0.4828283323        0.4594044333    
AX        0.6891233907       -0.2928405539       -0.6512038930    
AX       -0.3144524441       -0.3150438843       -0.3246632806    
AX       -0.7290833438        0.5465714874        0.1818104199    
    38
Energy=    -169.205253906186    
AX        0.8755781185        0.4693297504        -1.396989809    
AX         1.252505632       -0.8611417684         1.083579122    
AX       -0.2864157420        -1.261551073        0.2969064446    
AX         1.262700209        -1.213684209       -0.8430508072    
AX        -1.277361503       -0.4706249164        0.1530122477    
AX       -0.1919797846E-02     1.156451072        -1.512338051    
AX         1.313759171        0.2239977512        0.7670563183    
AX        -1.342131042        0.6975422902E-01     1.108677384    
AX       -0.3900150793        0.6511212782         1.307326451    
AX        0.7314895881         1.414915385        0.9669984925E-01
AX       -0.1932395462         1.671394537       -0.5224035831    
AX       -0.9441328046        -1.236876249       -0.5627138791    
AX        0.6551008843         1.105508848         1.238725072    
AX       -0.4882147766       -0.9571425655        -1.516396643    
AX        -1.200454026         1.500392084       -0.1159641109    
AX       -0.8412994083        0.7956324599       -0.8784826596    
AX        -1.298190501         1.147405642        0.9109475995    
AX        0.8638448935        -1.519665369        0.1669706663    
AX        -1.192213162       -0.2333359197       -0.9528667664    
AX         1.257719052        0.5251485690       -0.2840276090    
AX       -0.5335650021       -0.3439892330         1.824028366    
AX        0.1542350140        -1.086970576         1.274282584    
AX        0.6227712784       -0.6985898830        -1.631979132    
AX         1.688362576       -0.2051581691        -1.057798395    
AX       -0.2610204322         1.447851528        0.5631613722    
AX        0.1762296297        -1.238090677       -0.6887572981    
AX        0.1873263421        0.6685719211       -0.5518481602    
AX         1.552519799       -0.5566913668        0.5175656843E-02
AX       -0.1579064294        0.5183610439E-01    -1.355560359    
AX        0.4749016821       -0.4576748401E-01     1.406529113    
AX        -1.716274690        0.4854535380       -0.2260763875    
AX        -1.040910948        -1.059456136         1.104084466    
AX       -0.3930649875       -0.2826203162        0.7609748052    
AX        0.5384814130       -0.5349241462        0.3637684246    
AX        0.3052169685        0.4828283587        0.4594045060    
AX        0.6891234068       -0.2928405951       -0.6512038990    
AX       -0.3144524511       -0.3150438932       -0.3246633002    
AX       -0.7290833293        0.5465714890        0.1818104011    
    38
Energy=    -169.205253906180    
AX        0.8755780551        0.4693296759        -1.396989703    
AX         1.252505821       -0.8611416177         1.083579166    
AX       -0.2864153744        -1.261551136        0.2969064612    
AX         1.262700185        -1.213684230       -0.8430509094    
AX        -1.277361653       -0.4706246178        0.1530122357    
AX       -0.1919632623E-02     1.156451047        -1.512338007    
AX         1.313759229        0.2239978190        0.7670564251    
AX        -1.342131023        0.6975401611E-01     1.108677567    
AX       -0.3900151918        0.6511212359         1.307326479    
AX        0.7314895919         1.414915382        0.9669987613E-01
AX       -0.1932393382         1.671394517       -0.5224035736    
AX       -0.9441328829        -1.236876167       -0.5627135671    
AX        0.6551007390         1.105508981         1.238725315    
AX       -0.4882150817       -0.9571425911        -1.516396483    
AX        -1.200453840         1.500392248       -0.1159642065    
AX       -0.8412995081        0.7956327447       -0.8784829344    
AX        -1.298190633         1.147405247        0.9109472055    
AX        0.8638450036        -1.519665206        0.1669706474    
AX        -1.192213138       -0.2333357264       -0.9528666148    
AX         1.257718867        0.5251484470       -0.2840275172    
AX       -0.5335650472       -0.3439894325         1.824028240    
AX        0.1542352117        -1.086970476         1.274282592    