    38
Energy=    -172.877736411173    
AX        0.8310343810        0.4631095972        -1.362588274    
AX         1.480692343       -0.9327031530        0.7102344221    
AX       -0.2761623700        -1.421903113        0.6096038812    
AX         1.197002890        -1.024657024       -0.3766464663    
AX        -1.558581322       -0.1921659528        0.2317997849    
AX        0.3385504370E-01     1.230311438        -1.584067081    
AX         1.202738157        0.1405789889        0.7219283943    
AX        -1.309506025       -0.9657811212E-01     1.325229496    
AX       -0.5221089211        0.6505632729         1.109838794    
AX        0.9660778614         1.070286210        0.9911870970E-01
AX       -0.2343893341         1.819369690       -0.6605759353    
AX       -0.9253763350        -1.004181594       -0.1994936917    
AX        0.5741480611        0.9820100805         1.177394655    
AX       -0.5272989006       -0.9032197750        -1.236501519    
AX        -1.131867466         1.556851890       -0.4693251399E-01
AX       -0.8831284168        0.9735158850       -0.9863653111    
AX        -1.541878770        0.8200650277        0.7138968254    
AX        0.7712429363        -1.731933679        0.3753460277    
AX        -1.158466749       -0.9306411622E-01   -0.8080949182    
AX         1.684315399        0.7088117403       -0.6647537361    
AX       -0.4996518820       -0.8649478846         1.560676865    
AX        0.5554646877        -1.186254611         1.328337437    
AX        0.5434051449       -0.6043609133        -1.184373971    
AX         1.612813642       -0.3074885406        -1.126889972    
AX       -0.1106101867         1.384334116        0.3534988878    
AX        0.1220672979        -1.319106203       -0.4306478482    
AX        0.1325317282        0.7944859929       -0.5855017038    
AX         1.909268831       -0.2222447057       -0.4981838206E-01
AX       -0.2456171911        0.1633734479        -1.413603382    
AX        0.2836248547       -0.1134820960         1.340669023    
AX        -1.786648411        0.7160065228       -0.3757831516    
AX        -1.321342272        -1.101990883        0.8366638394    
AX       -0.5402899020       -0.3562074885        0.6022438035    
AX        0.4833182347       -0.6653809897        0.3770523227    
AX        0.2121160525        0.3635344801        0.3849113101    
AX        0.8956883165        0.2984620809E-01   -0.3568236705    
AX       -0.1532037329       -0.2607043138       -0.4165114873    
AX       -0.7652776749        0.5355205620        0.7528535316E-02
    38
Energy=    -172.877736411172    
AX        0.8310343724        0.4631095981        -1.362588282    
AX         1.480692343       -0.9327031631        0.7102344187    
AX       -0.2761623711        -1.421903110        0.6096038901    
AX         1.197002887        -1.024657025       -0.3766464691    
AX        -1.558581319       -0.1921659573        0.2317997793    
AX        0.3385504143E-01     1.230311446        -1.584067077    
AX         1.202738158        0.1405789769        0.7219284046    
AX        -1.309506027       -0.9657811631E-01     1.325229486    
AX       -0.5221089226        0.6505632779         1.109838794    
AX        0.9660778674         1.070286202        0.9911871279E-01
AX       -0.2343893345         1.819369696       -0.6605759286    
AX       -0.9253763295        -1.004181594       -0.1994936871    
AX        0.5741480623        0.9820100854         1.177394660    
AX       -0.5272988984       -0.9032197769        -1.236501523    
AX        -1.131867468         1.556851887       -0.4693252221E-01
AX       -0.8831284139        0.9735158835       -0.9863653121    
AX        -1.541878772        0.8200650277        0.7138968185    
AX        0.7712429377        -1.731933684        0.3753460303    
AX        -1.158466748       -0.9306412293E-01   -0.8080949229    
AX         1.684315398        0.7088117442       -0.6647537501    
AX       -0.4996518829       -0.8649478818         1.560676870    
AX        0.5554646848        -1.186254611         1.328337438    
AX        0.5434051364       -0.6043609126        -1.184373978    
AX         1.612813632       -0.3074885387        -1.126889980    
AX       -0.1106101817         1.384334115        0.3534988919    
AX        0.1220672996        -1.319106199       -0.4306478446    
AX        0.1325317326        0.7944859914       -0.5855016923    
AX         1.909268829       -0.2222447029       -0.4981838304E-01
AX       -0.2456171954        0.1633734519        -1.413603380    
AX        0.2836248550       -0.1134820919         1.340669039    
AX        -1.786648406        0.7160065141       -0.3757831649    
AX        -1.321342276        -1.101990884        0.8366638414    
AX       -0.5402899073       -0.3562074903        0.6022438168    
AX        0.4833182450       -0.6653809940        0.3770523247    
AX        0.2121160518        0.3635344929        0.3849113060    
AX        0.8956883047        0.2984620841E-01   -0.3568236702    
AX       -0.1532037199       -0.2607043066       -0.4165114917    
AX       -0.7652776660        0.5355205633        0.7528537247E-02
    38
Energy=    -172.877736411171    
AX        0.8310343696        0.4631096294        -1.362588250    
AX         1.480692334       -0.9327031947        0.7102343810    
AX       -0.2761623727        -1.421903089        0.6096039058    
AX         1.197002878        -1.024657041       -0.3766465092    
AX        -1.558581323       -0.1921659525        0.2317997708    
AX        0.3385503472E-01     1.230311453        -1.584067059    
AX         1.202738174        0.1405789634        0.7219284170    
AX        -1.309506056       -0.9657810967E-01     1.325229465    
AX       -0.5221089126        0.6505632416         1.109838815    
AX        0.9660778487         1.070286222        0.9911870673E-01
AX       -0.2343893117         1.819369697       -0.6605758878    
AX       -0.9253763140        -1.004181583       -0.1994936672    
AX        0.5741480827        0.9820101008         1.177394661    
AX       -0.5272989002       -0.9032197893        -1.236501517    
AX        -1.131867502         1.556851872       -0.4693260330E-01
AX       -0.8831283980        0.9735158621       -0.9863653284    
AX        -1.541878748        0.8200650548        0.7138968005    
AX        0.7712429190        -1.731933697        0.3753460322    
AX        -1.158466736       -0.9306414426E-01   -0.8080949277    
AX         1.684315389        0.7088117453       -0.6647537340    
AX       -0.4996518745       -0.8649478532         1.560676889    
AX        0.5554646781        -1.186254622         1.328337448    
AX        0.5434051291       -0.6043608902        -1.184374005    
AX         1.612813615       -0.3074885211        -1.126890007    
AX       -0.1106102384         1.384334110        0.3534989307    
AX        0.1220673075        -1.319106174       -0.4306478400    
AX        0.1325317255        0.7944860003       -0.5855016877    
AX         1.909268834       -0.2222447354       -0.4981840605E-01
AX       -0.2456171873        0.1633734489        -1.413603389    
AX        0.2836248930       -0.1134820854         1.340669056    
AX        -1.786648406        0.7160064803       -0.3757832047    
AX        -1.321342279        -1.101990870        0.8366638678    
AX       -0.5402898904       -0.3562074738        0.6022438186    
AX        0.4833182417       -0.6653809838        0.3770523329    
AX        0.2121160621        0.3635344747        0.3849113432    
AX        0.8956883200        0.2984619569E-01   -0.3568236617    
AX       -0.1532037161       -0.2607042983       -0.4165114893    
AX       -0.7652776693        0.5355205562        0.7528533132E-02
    38
Energy=    -172.877736411170    
AX        0.8310343667        0.4631096460        -1.362588223    
AX         1.480692326       -0.9327032065        0.7102343525    
AX       -0.2761623690        -1.421903081        0.6096039091    
AX         1.197002873        -1.024657052       -0.3766465347    
AX        -1.558581326       -0.1921659477        0.2317997691    
AX        0.3385502888E-01     1.230311451        -1.584067052    
AX         1.202738190        0.1405789629        0.7219284318    
AX        -1.309506074       -0.9657810046E-01     1.325229455    
AX       -0.5221089079        0.6505632089         1.109838826    
AX        0.9660778339         1.070286235        0.9911870886E-01
AX       -0.2343892874         1.819369702       -0.6605758628    
AX       -0.9253763050        -1.004181577       -0.1994936526    
AX        0.5741480985        0.9820101087         1.177394661    
AX       -0.5272989066       -0.9032198014        -1.236501500    
AX        -1.131867518         1.556851860       -0.4693265500E-01
AX       -0.8831283832        0.9735158515       -0.9863653393    
AX        -1.541878732        0.8200650716        0.7138967884    
AX        0.7712429020        -1.731933697        0.3753460336    
AX        -1.158466729       -0.9306415282E-01   -0.8080949290    
AX         1.684315366        0.7088117491       -0.6647537331    
AX       -0.4996518752       -0.8649478395         1.560676896    
AX        0.5554646734        -1.186254628         1.328337457    
AX        0.5434051264       -0.6043608741        -1.184374020    
AX         1.612813608       -0.3074885143        -1.126890026    
AX       -0.1106102762         1.384334099        0.3534989569    
AX        0.1220673179        -1.319106154       -0.4306478387    
AX        0.1325317254        0.7944860029       -0.5855016730    
AX         1.909268834       -0.2222447482       -0.4981841853E-01
AX       -0.2456171804        0.1633734392        -1.413603398    
AX        0.2836249111       -0.1134820930         1.340669068    
AX        -1.786648409        0.7160064663       -0.3757832265    
AX        -1.321342270        -1.101990858        0.8366638840    
AX       -0.5402898885       -0.3562074711        0.6022438168    
AX        0.4833182410       -0.6653809877        0.3770523367    
AX        0.2121160698        0.3635344852        0.3849113422    
AX        0.8956883284        0.2984618536E-01   -0.3568236502    
AX       -0.1532037151       -0.2607042915       -0.4165114905    
AX       -0.7652776674        0.5355205516        0.7528530131E-02
    38
Energy=    -172.877736411168    
AX        0.8310343686        0.4631096585        -1.362588195    
AX         1.480692316       -0.9327032031        0.7102343376    
AX       -0.2761623648        -1.421903080        0.6096039035    
AX         1.197002870        -1.024657060       -0.3766465545    
AX        -1.558581327       -0.1921659422        0.2317997701    
AX        0.3385502629E-01     1.230311442        -1.584067050    
AX         1.202738202        0.1405789796        0.7219284339    
AX        -1.309506089       -0.9657808672E-01     1.325229453    
AX       -0.5221089028        0.6505631765         1.109838842    
AX        0.9660778131         1.070286252        0.9911870892E-01
AX       -0.2343892601         1.819369703       -0.6605758492    
AX       -0.9253762997        -1.004181573       -0.1994936430    
AX        0.5741481102        0.9820101108         1.177394659    
AX       -0.5272989160       -0.9032198085        -1.236501481    
AX        -1.131867528         1.556851854       -0.4693269754E-01
AX       -0.8831283715        0.9735158470       -0.9863653463    
AX        -1.541878711        0.8200650851        0.7138967788    
AX        0.7712428860        -1.731933691        0.3753460291    
AX        -1.158466720       -0.9306415279E-01   -0.8080949250    
AX         1.684315344        0.7088117491       -0.6647537225    
AX       -0.4996518739       -0.8649478304         1.560676901    
AX        0.5554646700        -1.186254638         1.328337466    
AX        0.5434051328       -0.6043608625        -1.184374026    
AX         1.612813609       -0.3074885073        -1.126890036    
AX       -0.1106103156         1.384334088        0.3534989765    
AX        0.1220673234        -1.319106144       -0.4306478422    
AX        0.1325317221        0.7944860078       -0.5855016663    
AX         1.909268828       -0.2222447635       -0.4981842968E-01
AX       -0.2456171722        0.1633734283        -1.413603406    
AX        0.2836249291       -0.1134821088         1.340669066    
AX        -1.786648415        0.7160064608       -0.3757832345    
AX        -1.321342257        -1.101990849        0.8366638981    
AX       -0.5402898820       -0.3562074724        0.6022438019    
AX        0.4833182274       -0.6653809900        0.3770523390    
AX        0.2121160866        0.3635344893        0.3849113388    
AX        0.8956883479        0.2984618065E-01   -0.3568236405    
AX       -0.1532037321       -0.2607042958       -0.4165114817    
AX       -0.7652776741        0.5355205454        0.7528523577E-02
    38
Energy=    -172.877736411160    
AX        0.8310343985        0.4631096855        -1.362588170    
AX         1.480692356       -0.9327032459        0.7102342817    
AX       -0.2761623684        -1.421903046        0.6096039071    
AX         1.197002868        -1.024657073       -0.3766465765    
AX        -1.558581346       -0.1921659238        0.2317997789    
AX        0.3385502696E-01     1.230311440        -1.584067034    
AX         1.202738212        0.1405789581        0.7219283962    
AX        -1.309506120       -0.9657806017E-01     1.325229467    
AX       -0.5221089249        0.6505631678         1.109838884    
AX        0.9660777710         1.070286245        0.9911871818E-01
AX       -0.2343892539         1.819369665       -0.6605758183    
AX       -0.9253763064        -1.004181547       -0.1994936509    
AX        0.5741481252        0.9820101129         1.177394653    
AX       -0.5272988968       -0.9032198096        -1.236501486    
AX        -1.131867572         1.556851848       -0.4693274364E-01
AX       -0.8831283825        0.9735158233       -0.9863653546    
AX        -1.541878703        0.8200651162        0.7138967810    
AX        0.7712428604        -1.731933697        0.3753460299    
AX        -1.158466708       -0.9306415964E-01   -0.8080949223    
AX         1.684315359        0.7088117422       -0.6647536715    
AX       -0.4996518650       -0.8649477876         1.560676903    
AX        0.5554646987        -1.186254605         1.328337464    
AX        0.5434051582       -0.6043608544        -1.184374035    
AX         1.612813619       -0.3074884937        -1.126890041    
AX       -0.1106103744         1.384334068        0.3534990029    
AX        0.1220673130        -1.319106145       -0.4306478369    
AX        0.1325317167        0.7944859842       -0.5855016327    
AX         1.909268856       -0.2222447936       -0.4981846590E-01
AX       -0.2456171548        0.1633734237        -1.413603421    
AX        0.2836249578       -0.1134821018         1.340669087    
AX        -1.786648438        0.7160064368       -0.3757832376    
AX        -1.321342269        -1.101990826        0.8366638981    
AX       -0.5402898863       -0.3562074749        0.6022437695    
AX        0.4833182168       -0.6653809902        0.3770523447    
AX        0.2121161440        0.3635344910        0.3849112878    
AX        0.8956883814        0.2984620081E-01   -0.3568236194    
AX       -0.1532037663       -0.2607043071       -0.4165114452    
AX       -0.7652777018        0.5355205334        0.7528509398E-02
    38
Energy=    -172.877736411152    
AX        0.8310344878        0.4631098228        -1.362588032    
AX         1.480692430       -0.9327033295        0.7102341323    
AX       -0.2761623946        -1.421903030        0.6096039023    
AX         1.197002835        -1.024657103       -0.3766466076    
AX        -1.558581387       -0.1921658704        0.2317998676    
AX        0.3385505057E-01     1.230311451        -1.584066991    
AX         1.202738318        0.1405789594        0.7219282531    
AX        -1.309506191       -0.9657799427E-01     1.325229528    
AX       -0.5221088849        0.6505630586         1.109838940    
AX        0.9660776720         1.070286365        0.9911870989E-01
AX       -0.2343892546         1.819369551       -0.6605757709    
AX       -0.9253763656        -1.004181503       -0.1994936493    
AX        0.5741481621        0.9820101142         1.177394580    
AX       -0.5272988542       -0.9032198399        -1.236501442    
AX        -1.131867669         1.556851828       -0.4693287183E-01
AX       -0.8831284138        0.9735157472       -0.9863654023    
AX        -1.541878666        0.8200652128        0.7138967759    
AX        0.7712427704        -1.731933703        0.3753459879    
AX        -1.158466712       -0.9306416355E-01   -0.8080949345    
AX         1.684315457        0.7088117031       -0.6647534098    
AX       -0.4996518562       -0.8649476185         1.560676871    
AX        0.5554647645        -1.186254573         1.328337460    
AX        0.5434051968       -0.6043607843        -1.184374009    
AX         1.612813665       -0.3074884839        -1.126890021    
AX       -0.1106105916         1.384333968        0.3534990887    
AX        0.1220672932        -1.319106128       -0.4306478461    
AX        0.1325316461        0.7944859036       -0.5855016452    
AX         1.909268947       -0.2222449252       -0.4981853723E-01
AX       -0.2456170905        0.1633733766        -1.413603480    
AX        0.2836250568       -0.1134820742         1.340669011    
AX        -1.786648515        0.7160063874       -0.3757832250    
AX        -1.321342238        -1.101990765        0.8366638799    
AX       -0.5402899256       -0.3562074204        0.6022437968    
AX        0.4833182554       -0.6653810119        0.3770523445    
AX        0.2121160572        0.3635344986        0.3849113313    
AX        0.8956883846        0.2984615671E-01   -0.3568236135    
AX       -0.1532037275       -0.2607043026       -0.4165114922    
AX       -0.7652777132        0.5355205191        0.7528521435E-02
    38
Energy=    -172.877736411133    
AX        0.8310346002        0.4631099188        -1.362588001    
AX         1.480692544       -0.9327034609        0.7102340250    
AX       -0.2761624357        -1.421902949        0.6096039398    
AX         1.197002820        -1.024657120       -0.3766466083    
AX        -1.558581444       -0.1921658305        0.2317999211    
AX        0.3385507537E-01     1.230311485        -1.584066943    
AX         1.202738346        0.1405788760        0.7219280864    
AX        -1.309506229       -0.9657797962E-01     1.325229578    
AX       -0.5221089000        0.6505630880         1.109838987    
AX        0.9660775873         1.070286392        0.9911868647E-01
AX       -0.2343893546         1.819369426       -0.6605757347    
AX       -0.9253764220        -1.004181446       -0.1994936859    
AX        0.5741481676        0.9820101220         1.177394528    
AX       -0.5272987711       -0.9032198322        -1.236501517    
AX        -1.131867780         1.556851827       -0.4693289558E-01
AX       -0.8831284939        0.9735156678       -0.9863654320    
AX        -1.541878692        0.8200652819        0.7138968268    
AX        0.7712427465        -1.731933764        0.3753459811    
AX        -1.158466733       -0.9306419260E-01   -0.8080949523    
AX         1.684315653        0.7088116542       -0.6647531553    
AX       -0.4996518178       -0.8649474789         1.560676856    
AX        0.5554648430        -1.186254497         1.328337413    
AX        0.5434052284       -0.6043607643        -1.184374014    
AX         1.612813689       -0.3074884658        -1.126889987    
AX       -0.1106106809         1.384333934        0.3534991140    
AX        0.1220672402        -1.319106150       -0.4306478270    
AX        0.1325315909        0.7944858197       -0.5855016455    
AX         1.909269078       -0.2222450370       -0.4981859300E-01
AX       -0.2456170527        0.1633733947        -1.413603512    
AX        0.2836251448       -0.1134819837         1.340669014    
AX        -1.786648564        0.7160063253       -0.3757832065    
AX        -1.321342303        -1.101990730        0.8366638474    
AX       -0.5402899569       -0.3562073815        0.6022438116    
AX        0.4833182975       -0.6653810003        0.3770523408    
AX        0.2121160450        0.3635344651        0.3849113336    
AX        0.8956883927        0.2984617304E-01   -0.3568236139    
AX       -0.1532037042       -0.2607043044       -0.4165114878    
AX       -0.7652777557        0.5355205182        0.7528521835E-02
    38
Energy=    -172.877736411119    
AX        0.8310346204        0.4631099406        -1.362588020    
AX         1.480692612       -0.9327035415        0.7102339660    
AX       -0.2761624495        -1.421902912        0.6096039693    
AX         1.197002818        -1.024657120       -0.3766465974    
AX        -1.558581465       -0.1921658191        0.2317999369    
AX        0.3385507906E-01     1.230311516        -1.584066913    
AX         1.202738335        0.1405787989        0.7219280574    
AX        -1.309506234       -0.9657798805E-01     1.325229589    
AX       -0.5221089202        0.6505631305         1.109838971    
AX        0.9660776054         1.070286365        0.9911870025E-01
AX       -0.2343894155         1.819369387       -0.6605757151    
AX       -0.9253764359        -1.004181423       -0.1994937009    
AX        0.5741481649        0.9820101243         1.177394515    
AX       -0.5272987289       -0.9032198393        -1.236501553    
AX        -1.131867807         1.556851819       -0.4693286600E-01
AX       -0.8831285205        0.9735156354       -0.9863654375    
AX        -1.541878740        0.8200652934        0.7138968434    
AX        0.7712427462        -1.731933802        0.3753459964    
AX        -1.158466747       -0.9306421220E-01   -0.8080949678    
AX         1.684315717        0.7088116459       -0.6647531189    
AX       -0.4996518230       -0.8649474374         1.560676845    
AX        0.5554648764        -1.186254441         1.328337395    
AX        0.5434052222       -0.6043607635        -1.184374026    
AX         1.612813680       -0.3074884759        -1.126889980    
AX       -0.1106106642         1.384333937        0.3534991156    
AX        0.1220672299        -1.319106151       -0.4306478071    
AX        0.1325315855        0.7944857943       -0.5855016523    
AX         1.909269132       -0.2222450318       -0.4981860524E-01
AX       -0.2456170521        0.1633734103        -1.413603525    
AX        0.2836251372       -0.1134819186         1.340669033    
AX        -1.786648566        0.7160063003       -0.3757832133    
AX        -1.321342338        -1.101990724        0.8366638159    
AX       -0.5402899728       -0.3562073633        0.6022438394    
AX        0.4833183385       -0.6653809833        0.3770523464    
AX        0.2121160386        0.3635344407        0.3849113681    
AX        0.8956883720        0.2984617320E-01   -0.3568236208    
AX       -0.1532036630       -0.2607042884       -0.4165115086    
AX       -0.7652777669        0.5355205245        0.7528525756E-02
    38
Energy=    -172.877736410999    
AX        0.8310346222        0.4631099384        -1.362588040    
AX         1.480692632       -0.9327036128        0.7102338415    
AX       -0.2761624399        -1.421902891        0.6096040742    
AX         1.197002799        -1.024657143       -0.3766466315    
AX        -1.558581496       -0.1921658116        0.2317999415    
AX        0.3385509669E-01     1.230311532        -1.584066881    
AX         1.202738208        0.1405787517        0.7219280334    
AX        -1.309506229       -0.9657800749E-01     1.325229553    
AX       -0.5221089496        0.6505631498         1.109838921    
AX        0.9660776054         1.070286342        0.9911877063E-01
AX       -0.2343894847         1.819369409       -0.6605756991    
AX       -0.9253764369        -1.004181461       -0.1994936319    
AX        0.5741481664        0.9820100479         1.177394488    
AX       -0.5272987246       -0.9032198832        -1.236501535    
AX        -1.131867797         1.556851792       -0.4693281833E-01
AX       -0.8831284898        0.9735156275       -0.9863654520    
AX        -1.541878831        0.8200652838        0.7138968374    
AX        0.7712427596        -1.731933872        0.3753460308    
AX        -1.158466794       -0.9306423299E-01   -0.8080949984    
AX         1.684315738        0.7088117025       -0.6647530793    
AX       -0.4996518699       -0.8649474117         1.560676839    
AX        0.5554649356        -1.186254362         1.328337335    
AX        0.5434051460       -0.6043607833        -1.184374073    
AX         1.612813684       -0.3074884885        -1.126890018    
AX       -0.1106105824         1.384334006        0.3534991325    
AX        0.1220672159        -1.319106151       -0.4306477916    
AX        0.1325316403        0.7944858190       -0.5855017022    
AX         1.909269221       -0.2222449614       -0.4981855750E-01
AX       -0.2456170496        0.1633734207        -1.413603541    
AX        0.2836250997       -0.1134818478         1.340669024    
AX        -1.786648496        0.7160063137       -0.3757832435    
AX        -1.321342338        -1.101990732        0.8366638435    
AX       -0.5402900833       -0.3562074390        0.6022439769    
AX        0.4833184277       -0.6653809226        0.3770523189    
AX        0.2121162879        0.3635344069        0.3849115187    
AX        0.8956882599        0.2984613386E-01   -0.3568235654    
AX       -0.1532035451       -0.2607042763       -0.4165116632    
AX       -0.7652779088        0.5355206155        0.7528441863E-02
    38
Energy=    -172.877736411015    
AX        0.8310350203        0.4631100900        -1.362587803    
AX         1.480692367       -0.9327033305        0.7102341234    
AX       -0.2761625205        -1.421902811        0.6096040004    
AX         1.197002745        -1.024657181       -0.3766467232    
AX        -1.558581584       -0.1921657868        0.2317999501    
AX        0.3385520021E-01     1.230311318        -1.584066995    
AX         1.202738476        0.1405791017        0.7219275062    
AX        -1.309506279       -0.9657796922E-01     1.325229574    
AX       -0.5221087386        0.6505629299         1.109839225    
AX        0.9660769896         1.070286808        0.9911835362E-01
AX       -0.2343893901         1.819369235       -0.6605757712    
AX       -0.9253766318        -1.004181498       -0.1994937118    
AX        0.5741481498        0.9820100946         1.177394476    
AX       -0.5272987504       -0.9032196507        -1.236501756    
AX        -1.131868092         1.556851923       -0.4693317568E-01
AX       -0.8831286604        0.9735156175       -0.9863655644    
AX        -1.541878427        0.8200654882        0.7138970316    
AX        0.7712427926        -1.731933823        0.3753458647    
AX        -1.158466814       -0.9306421710E-01   -0.8080949451    
AX         1.684316202        0.7088115923       -0.6647521393    
AX       -0.4996514927       -0.8649472494         1.560676935    
AX        0.5554649397        -1.186254659         1.328337240    
AX        0.5434053146       -0.6043607318        -1.184373911    
AX         1.612813886       -0.3074881992        -1.126889925    
AX       -0.1106110715         1.384333917        0.3534991508    
AX        0.1220670047        -1.319106343       -0.4306479039    
AX        0.1325314109        0.7944856545       -0.5855017371    
AX         1.909269367       -0.2222456615       -0.4981865442E-01
AX       -0.2456168743        0.1633734199        -1.413603400    
AX        0.2836257072       -0.1134820502         1.340668899    
AX        -1.786648714        0.7160062867       -0.3757830730    
AX        -1.321342434        -1.101990639        0.8366641056    
AX       -0.5402899952       -0.3562073017        0.6022438104    
AX        0.4833182048       -0.6653809752        0.3770521471    
AX        0.2121158746        0.3635342916        0.3849112576    
AX        0.8956884436        0.2984618966E-01   -0.3568235631    
AX       -0.1532037430       -0.2607044465       -0.4165114290    
AX       -0.7652778844        0.5355205642        0.7528532345E-02
    38
Energy=    -172.877736410852    
AX        0.8310353442        0.4631101859        -1.362587483    
AX         1.480691879       -0.9327029102        0.7102343333    
AX       -0.2761625239        -1.421902859        0.6096040241    
AX         1.197002656        -1.024657272       -0.3766469134    
AX        -1.558581654       -0.1921657924        0.2317999435    
AX        0.3385531301E-01     1.230311060        -1.584067159    
AX         1.202738567        0.1405796407        0.7219270704    
AX        -1.309506306       -0.9657793703E-01     1.325229496    
AX       -0.5221084734        0.6505625619         1.109839435    
AX        0.9660763426         1.070287332        0.9911802582E-01
AX       -0.2343892607         1.819369277       -0.6605758907    
AX       -0.9253767651        -1.004181692       -0.1994935639    
AX        0.5741481763        0.9820099813         1.177394407    
AX       -0.5272989344       -0.9032195335        -1.236501761    
AX        -1.131868264         1.556852029       -0.4693352099E-01
AX       -0.8831286701        0.9735156963       -0.9863656915    
AX        -1.541878070        0.8200656273        0.7138971586    
AX        0.7712428222        -1.731933756        0.3753457127    
AX        -1.158466889       -0.9306415616E-01   -0.8080948917    
AX         1.684316469        0.7088115849       -0.6647512601    
AX       -0.4996512398       -0.8649471788         1.560677038    
AX        0.5554649249        -1.186254981         1.328337087    