    38
Energy=    -169.266920456807    
AX        0.8013660533        0.3268575754        -1.584075171    
AX         1.195178900       -0.8351979556         1.090991418    
AX       -0.6341658336E-01    -1.731952862        0.3886157168    
AX         1.244311388        -1.127672853       -0.8185751735    
AX        -1.376026494       -0.2400488861        0.1381281599    
AX        0.5714937070E-02     1.182776310        -1.584097109    
AX         1.366284548        0.2628959964        0.8786854440    
AX        -1.435272714       -0.1608343117         1.223908603    
AX       -0.4399333450        0.6855634571         1.540681287    
AX        0.7471652826         1.440392372        0.1809298971    
AX       -0.1716019358         1.646005300       -0.5119894193    
AX       -0.9114236717        -1.365163827       -0.2772195909    
AX        0.6007753785         1.002014235         1.209064719    
AX       -0.5973006602       -0.9004081015        -1.252571226    
AX        -1.139269259         1.584128766       -0.5275997301E-01
AX       -0.9845045569         1.059122009        -1.107971167    
AX        -1.257103955        0.7750958363        0.6807224602    
AX         1.008336079        -1.513909953        0.2018144141    
AX        -1.234982033       -0.5053280808E-01   -0.9335408386    
AX         1.402284673        0.5904724343       -0.1788279870    
AX       -0.5174236885       -0.4346934826         1.717300395    
AX        0.1767217840        -1.197968867         1.336821377    
AX        0.4591166906       -0.7273972818        -1.521505318    
AX         1.620313290       -0.1146420312       -0.9900435297    
AX       -0.2605466197         1.231955927        0.5769741344    
AX        0.1975647975        -1.266319379       -0.5609325939    
AX        0.4689186018        0.8228389462       -0.6792469550    
AX         1.414386980       -0.4859754245        0.7604145891E-01
AX       -0.2155250514        0.1576057988        -1.207874164    
AX        0.4188055338       -0.7618246659E-01     1.315801438    
AX        -1.715911364        0.7046908671       -0.3226381206    
AX       -0.7526573990       -0.9670033437        0.7401873415    
AX       -0.4693467865        0.4647151474E-01    0.6923758329    
AX        0.3443765345       -0.6823450926        0.4012931826    
AX        0.4392399963        0.3916754295        0.2987368464    
AX        0.6101200001       -0.2312690594       -0.5793716442    
AX       -0.4093666726       -0.4192995506       -0.2900740964    
AX       -0.5693686577        0.6182547617       -0.2357600493    
    38
Energy=    -169.266920456806    
AX        0.8013660471        0.3268575715        -1.584075161    
AX         1.195178895       -0.8351979421         1.090991425    
AX       -0.6341658681E-01    -1.731952878        0.3886156984    
AX         1.244311392        -1.127672874       -0.8185751553    
AX        -1.376026499       -0.2400488958        0.1381281689    
AX        0.5714911950E-02     1.182776286        -1.584097132    
AX         1.366284550        0.2628959951        0.8786854528    
AX        -1.435272726       -0.1608343149         1.223908615    
AX       -0.4399333419        0.6855634519         1.540681283    
AX        0.7471652736         1.440392396        0.1809298979    
AX       -0.1716019445         1.646005320       -0.5119894352    
AX       -0.9114236757        -1.365163831       -0.2772195967    
AX        0.6007753823         1.002014232         1.209064709    
AX       -0.5973006693       -0.9004081010        -1.252571233    
AX        -1.139269257         1.584128770       -0.5275996933E-01
AX       -0.9845045571         1.059122022        -1.107971148    
AX        -1.257103945        0.7750958250        0.6807224576    
AX         1.008336067        -1.513909950        0.2018144352    
AX        -1.234982033       -0.5053280099E-01   -0.9335408364    
AX         1.402284677        0.5904724407       -0.1788279827    
AX       -0.5174236850       -0.4346934851         1.717300378    
AX        0.1767217886        -1.197968879         1.336821366    
AX        0.4591166963       -0.7273972953        -1.521505318    
AX         1.620313306       -0.1146420476       -0.9900435289    
AX       -0.2605466182         1.231955941        0.5769741426    
AX        0.1975647929        -1.266319370       -0.5609325998    
AX        0.4689186115        0.8228389672       -0.6792469608    
AX         1.414386980       -0.4859754214        0.7604146457E-01
AX       -0.2155250446        0.1576057994        -1.207874140    
AX        0.4188055326       -0.7618246389E-01     1.315801431    
AX        -1.715911354        0.7046908665       -0.3226381156    
AX       -0.7526573928       -0.9670033558        0.7401873365    
AX       -0.4693467872        0.4647150140E-01    0.6923758267    
AX        0.3443765269       -0.6823450903        0.4012931764    
AX        0.4392399974        0.3916754348        0.2987368360    
AX        0.6101200086       -0.2312690485       -0.5793716511    
AX       -0.4093666776       -0.4192995425       -0.2900740958    
AX       -0.5693686409        0.6182547658       -0.2357600408    
    38
Energy=    -169.266920456806    
AX        0.8013660459        0.3268575768        -1.584075159    
AX         1.195178890       -0.8351979316         1.090991433    
AX       -0.6341659476E-01    -1.731952888        0.3886156851    
AX         1.244311398        -1.127672893       -0.8185751365    
AX        -1.376026500       -0.2400489026        0.1381281771    
AX        0.5714893489E-02     1.182776280        -1.584097144    
AX         1.366284553        0.2628959969        0.8786854590    
AX        -1.435272730       -0.1608343149         1.223908627    
AX       -0.4399333413        0.6855634470         1.540681281    
AX        0.7471652706         1.440392411        0.1809298957    
AX       -0.1716019512         1.646005337       -0.5119894424    
AX       -0.9114236851        -1.365163825       -0.2772196020    
AX        0.6007753848         1.002014233         1.209064701    
AX       -0.5973006718       -0.9004080980        -1.252571240    
AX        -1.139269261         1.584128773       -0.5275997050E-01
AX       -0.9845045584         1.059122024        -1.107971136    
AX        -1.257103937        0.7750958189        0.6807224545    
AX         1.008336053        -1.513909948        0.2018144553    
AX        -1.234982030       -0.5053280162E-01   -0.9335408355    
AX         1.402284677        0.5904724413       -0.1788279837    
AX       -0.5174236794       -0.4346934914         1.717300368    
AX        0.1767217941        -1.197968888         1.336821357    
AX        0.4591167076       -0.7273973035        -1.521505324    
AX         1.620313312       -0.1146420619       -0.9900435350    
AX       -0.2605466150         1.231955948        0.5769741445    
AX        0.1975647894        -1.266319365       -0.5609326052    
AX        0.4689186192        0.8228389807       -0.6792469506    
AX         1.414386981       -0.4859754213        0.7604147038E-01
AX       -0.2155250434        0.1576057968        -1.207874125    
AX        0.4188055314       -0.7618246114E-01     1.315801425    
AX        -1.715911350        0.7046908624       -0.3226381109    
AX       -0.7526573895       -0.9670033623        0.7401873342    
AX       -0.4693467882        0.4647149009E-01    0.6923758218    
AX        0.3443765235       -0.6823450922        0.4012931768    
AX        0.4392400020        0.3916754419        0.2987368213    
AX        0.6101200195       -0.2312690410       -0.5793716559    
AX       -0.4093666859       -0.4192995347       -0.2900740983    
AX       -0.5693686325        0.6182547670       -0.2357600350    
    38
Energy=    -169.266920456804    
AX        0.8013660829        0.3268574914        -1.584075169    
AX         1.195178908       -0.8351979429         1.090991425    
AX       -0.6341655673E-01    -1.731952936        0.3886157347    
AX         1.244311396        -1.127672872       -0.8185751545    
AX        -1.376026520       -0.2400488857        0.1381281445    
AX        0.5714906626E-02     1.182776273        -1.584097180    
AX         1.366284510        0.2628959907        0.8786854488    
AX        -1.435272722       -0.1608343642         1.223908594    
AX       -0.4399332949        0.6855634192         1.540681279    
AX        0.7471652307         1.440392427        0.1809298733    
AX       -0.1716019404         1.646005337       -0.5119894808    
AX       -0.9114236070        -1.365163880       -0.2772195894    
AX        0.6007753775         1.002014244         1.209064689    
AX       -0.5973007293       -0.9004080850        -1.252571218    
AX        -1.139269243         1.584128829       -0.5275994396E-01
AX       -0.9845045450         1.059122047        -1.107971130    
AX        -1.257103927        0.7750958366        0.6807224768    
AX         1.008336059        -1.513909929        0.2018144352    
AX        -1.234982047       -0.5053273143E-01   -0.9335408686    
AX         1.402284638        0.5904724474       -0.1788279447    
AX       -0.5174236777       -0.4346935418         1.717300371    
AX        0.1767218209        -1.197968894         1.336821351    
AX        0.4591166483       -0.7273973558        -1.521505288    
AX         1.620313342       -0.1146420349       -0.9900434666    
AX       -0.2605466350         1.231955986        0.5769741528    
AX        0.1975647807        -1.266319356       -0.5609325628    
AX        0.4689186285        0.8228390009       -0.6792469856    
AX         1.414387022       -0.4859754308        0.7604146436E-01
AX       -0.2155250438        0.1576057928        -1.207874141    
AX        0.4188055163       -0.7618246703E-01     1.315801413    
AX        -1.715911334        0.7046909209       -0.3226380775    
AX       -0.7526573904       -0.9670034044        0.7401873222    
AX       -0.4693467929        0.4647146339E-01    0.6923758161    
AX        0.3443765081       -0.6823450656        0.4012931576    
AX        0.4392399184        0.3916754588        0.2987368171    
AX        0.6101200293       -0.2312690519       -0.5793716333    
AX       -0.4093666839       -0.4192995384       -0.2900741072    
AX       -0.5693686328        0.6182548006       -0.2357600233    
    38
Energy=    -169.266920456801    
AX        0.8013661148        0.3268574145        -1.584075172    
AX         1.195178924       -0.8351979558         1.090991412    
AX       -0.6341652110E-01    -1.731952976        0.3886157841    
AX         1.244311393        -1.127672849       -0.8185751756    
AX        -1.376026525       -0.2400488683        0.1381281104    
AX        0.5714925570E-02     1.182776270        -1.584097207    
AX         1.366284468        0.2628959875        0.8786854332    
AX        -1.435272705       -0.1608344070         1.223908557    
AX       -0.4399332518        0.6855633950         1.540681275    
AX        0.7471651965         1.440392434        0.1809298592    
AX       -0.1716019402         1.646005346       -0.5119895102    
AX       -0.9114235385        -1.365163935       -0.2772195772    
AX        0.6007753687         1.002014256         1.209064680    
AX       -0.5973007784       -0.9004080737        -1.252571199    
AX        -1.139269223         1.584128885       -0.5275992191E-01
AX       -0.9845045359         1.059122066        -1.107971132    
AX        -1.257103916        0.7750958485        0.6807225013    
AX         1.008336065        -1.513909907        0.2018144133    
AX        -1.234982067       -0.5053266987E-01   -0.9335408946    
AX         1.402284594        0.5904724490       -0.1788279082    
AX       -0.5174236774       -0.4346935894         1.717300378    
AX        0.1767218455        -1.197968896         1.336821340    
AX        0.4591165932       -0.7273974005        -1.521505252    
AX         1.620313364       -0.1146420071       -0.9900434025    
AX       -0.2605466517         1.231956023        0.5769741645    
AX        0.1975647813        -1.266319362       -0.5609325224    
AX        0.4689186431        0.8228389782       -0.6792470295    
AX         1.414387061       -0.4859754418        0.7604146284E-01
AX       -0.2155250317        0.1576057962        -1.207874160    
AX        0.4188055099       -0.7618247524E-01     1.315801407    
AX        -1.715911323        0.7046909725       -0.3226380481    
AX       -0.7526573938       -0.9670034341        0.7401873132    
AX       -0.4693468355        0.4647143548E-01    0.6923758187    
AX        0.3443765108       -0.6823450584        0.4012931577    
AX        0.4392398683        0.3916754921        0.2987367993    
AX        0.6101200287       -0.2312690410       -0.5793716159    
AX       -0.4093667061       -0.4192995038       -0.2900741180    
AX       -0.5693686344        0.6182548015       -0.2357600197    
    38
Energy=    -169.266920456796    
AX        0.8013661341        0.3268573028        -1.584075176    
AX         1.195178942       -0.8351979987         1.090991360    
AX       -0.6341644028E-01    -1.731952982        0.3886158642    
AX         1.244311361        -1.127672764       -0.8185752758    
AX        -1.376026531       -0.2400488361        0.1381280499    
AX        0.5714988684E-02     1.182776258        -1.584097226    
AX         1.366284422        0.2628959612        0.8786854109    
AX        -1.435272704       -0.1608344513         1.223908485    
AX       -0.4399332159        0.6855633947         1.540681282    
AX        0.7471651599         1.440392396        0.1809298521    
AX       -0.1716019147         1.646005284       -0.5119895257    
AX       -0.9114234222        -1.365164026       -0.2772195444    
AX        0.6007753578         1.002014249         1.209064701    
AX       -0.5973008312       -0.9004080821        -1.252571141    
AX        -1.139269177         1.584128917       -0.5275988554E-01
AX       -0.9845045116         1.059122107        -1.107971167    
AX        -1.257103938        0.7750958726        0.6807225314    
AX         1.008336131        -1.513909889        0.2018143119    
AX        -1.234982079       -0.5053259598E-01   -0.9335409163    
AX         1.402284558        0.5904724724       -0.1788278606    
AX       -0.5174237076       -0.4346935808         1.717300400    
AX        0.1767218413        -1.197968859         1.336821362    
AX        0.4591164824       -0.7273974174        -1.521505198    
AX         1.620313391       -0.1146419297       -0.9900433104    
AX       -0.2605466845         1.231956043        0.5769741796    
AX        0.1975647920        -1.266319383       -0.5609324774    
AX        0.4689186517        0.8228389332       -0.6792470750    
AX         1.414387079       -0.4859754410        0.7604143225E-01
AX       -0.2155250446        0.1576057968        -1.207874204    
AX        0.4188055008       -0.7618249999E-01     1.315801423    
AX        -1.715911314        0.7046910482       -0.3226380467    
AX       -0.7526573961       -0.9670034405        0.7401873093    
AX       -0.4693468678        0.4647144351E-01    0.6923758413    
AX        0.3443765347       -0.6823450620        0.4012931691    
AX        0.4392398154        0.3916755095        0.2987368163    
AX        0.6101200033       -0.2312690512       -0.5793715942    
AX       -0.4093667182       -0.4192995138       -0.2900741261    
AX       -0.5693686485        0.6182548151       -0.2357600296    
    38
Energy=    -169.266920456793    
AX        0.8013661325        0.3268572711        -1.584075174    
AX         1.195178946       -0.8351980141         1.090991339    
AX       -0.6341641321E-01    -1.731952979        0.3886158848    
AX         1.244311348        -1.127672736       -0.8185753167    
AX        -1.376026532       -0.2400488277        0.1381280315    
AX        0.5715007534E-02     1.182776247        -1.584097232    
AX         1.366284414        0.2628959513        0.8786854063    
AX        -1.435272709       -0.1608344598         1.223908463    
AX       -0.4399332086        0.6855634033         1.540681283    
AX        0.7471651505         1.440392379        0.1809298606    
AX       -0.1716019073         1.646005261       -0.5119895290    
AX       -0.9114233883        -1.365164054       -0.2772195324    
AX        0.6007753546         1.002014239         1.209064714    
AX       -0.5973008414       -0.9004080885        -1.252571120    
AX        -1.139269160         1.584128921       -0.5275987608E-01
AX       -0.9845045061         1.059122123        -1.107971178    
AX        -1.257103948        0.7750958761        0.6807225363    
AX         1.008336156        -1.513909881        0.2018142726    
AX        -1.234982083       -0.5053258010E-01   -0.9335409198    
AX         1.402284553        0.5904724830       -0.1788278451    
AX       -0.5174237199       -0.4346935605         1.717300405    
AX        0.1767218315        -1.197968843         1.336821368    
AX        0.4591164484       -0.7273974160        -1.521505181    
AX         1.620313398       -0.1146419052       -0.9900432831    
AX       -0.2605466958         1.231956042        0.5769741850    
AX        0.1975647968        -1.266319389       -0.5609324668    
AX        0.4689186554        0.8228389161       -0.6792470933    
AX         1.414387079       -0.4859754374        0.7604142062E-01
AX       -0.2155250475        0.1576058002        -1.207874214    
AX        0.4188055022       -0.7618251086E-01     1.315801431    
AX        -1.715911311        0.7046910664       -0.3226380529    
AX       -0.7526573972       -0.9670034393        0.7401873095    
AX       -0.4693468788        0.4647145505E-01    0.6923758589    
AX        0.3443765476       -0.6823450686        0.4012931776    
AX        0.4392398099        0.3916755124        0.2987368265    
AX        0.6101199903       -0.2312690521       -0.5793715919    
AX       -0.4093667244       -0.4192995230       -0.2900741311    
AX       -0.5693686496        0.6182548196       -0.2357600357    
    38
Energy=    -169.266920456756    
AX        0.8013661087        0.3268573265        -1.584075141    
AX         1.195178950       -0.8351979727         1.090991361    
AX       -0.6341652426E-01    -1.731953008        0.3886157962    
AX         1.244311352        -1.127672824       -0.8185752181    
AX        -1.376026547       -0.2400488806        0.1381280365    
AX        0.5714923586E-02     1.182776223        -1.584097226    
AX         1.366284456        0.2628960109        0.8786853907    
AX        -1.435272663       -0.1608344205         1.223908504    
AX       -0.4399331968        0.6855633784         1.540681209    
AX        0.7471651846         1.440392393        0.1809299189    
AX       -0.1716019542         1.646005319       -0.5119895460    
AX       -0.9114234791        -1.365163932       -0.2772195851    
AX        0.6007753544         1.002014238         1.209064739    
AX       -0.5973007283       -0.9004080561        -1.252571145    
AX        -1.139269165         1.584128899       -0.5275991461E-01
AX       -0.9845045792         1.059122101        -1.107971128    
AX        -1.257103889        0.7750958435        0.6807225184    
AX         1.008336081        -1.513909863        0.2018143880    
AX        -1.234982101       -0.5053264924E-01   -0.9335408974    
AX         1.402284554        0.5904724502       -0.1788278928    
AX       -0.5174236515       -0.4346935698         1.717300365    
AX        0.1767218394        -1.197968906         1.336821247    
AX        0.4591165895       -0.7273974008        -1.521505141    
AX         1.620313354       -0.1146420100       -0.9900433071    
AX       -0.2605467012         1.231956062        0.5769741727    
AX        0.1975647746        -1.266319351       -0.5609324592    
AX        0.4689186446        0.8228389212       -0.6792471818    
AX         1.414387051       -0.4859754397        0.7604145093E-01
AX       -0.2155250014        0.1576058445        -1.207874201    
AX        0.4188055390       -0.7618250536E-01     1.315801416    
AX        -1.715911305        0.7046909789       -0.3226380293    
AX       -0.7526574351       -0.9670035158        0.7401873074    
AX       -0.4693468549        0.4647154994E-01    0.6923759806    
AX        0.3443765882       -0.6823450904        0.4012932286    
AX        0.4392398309        0.3916755379        0.2987368716    
AX        0.6101199870       -0.2312689884       -0.5793715992    
AX       -0.4093667724       -0.4192995987       -0.2900742430    
AX       -0.5693686135        0.6182549060       -0.2357600466    
    38
Energy=    -169.266920456776    
AX        0.8013661162        0.3268571458        -1.584075198    
AX         1.195178930       -0.8351980435         1.090991284    
AX       -0.6341617405E-01    -1.731952933        0.3886160378    
AX         1.244311299        -1.127672583       -0.8185755316    
AX        -1.376026536       -0.2400487318        0.1381279713    
AX        0.5715223578E-02     1.182776280        -1.584097261    
AX         1.366284318        0.2628958606        0.8786854237    
AX        -1.435272795       -0.1608345240         1.223908384    
AX       -0.4399332110        0.6855633893         1.540681356    
AX        0.7471650774         1.440392343        0.1809297776    
AX       -0.1716018487         1.646005098       -0.5119894956    
AX       -0.9114231689        -1.365164259       -0.2772194239    
AX        0.6007753503         1.002014229         1.209064679    
AX       -0.5973010400       -0.9004081544        -1.252571002    
AX        -1.139269099         1.584128966       -0.5275978019E-01
AX       -0.9845043431         1.059122210        -1.107971275    
AX        -1.257104045        0.7750959117        0.6807225802    
AX         1.008336327        -1.513909877        0.2018140711    
AX        -1.234982058       -0.5053242280E-01   -0.9335409378    
AX         1.402284544        0.5904725559       -0.1788277610    
AX       -0.5174238422       -0.4346935204         1.717300439    
AX        0.1767218335        -1.197968743         1.336821547    
AX        0.4591161579       -0.7273974271        -1.521505198    
AX         1.620313498       -0.1146417287       -0.9900432207    
AX       -0.2605467255         1.231955978        0.5769742159    
AX        0.1975648084        -1.266319447       -0.5609324707    
AX        0.4689186330        0.8228388272       -0.6792470704    
AX         1.414387100       -0.4859754166        0.7604136213E-01
AX       -0.2155250897        0.1576057762        -1.207874252    
AX        0.4188054168       -0.7618252291E-01     1.315801468    
AX        -1.715911292        0.7046912437       -0.3226381192    
AX       -0.7526573227       -0.9670033865        0.7401873060    
AX       -0.4693469492        0.4647144033E-01    0.6923758275    
AX        0.3443765669       -0.6823451086        0.4012931878    
AX        0.4392397779        0.3916754648        0.2987368129    
AX        0.6101199990       -0.2312691484       -0.5793716151    
AX       -0.4093667022       -0.4192995272       -0.2900740789    
AX       -0.5693687341        0.6182547854       -0.2357600383    
    38
Energy=    -169.266920456739    
AX        0.8013660782        0.3268571036        -1.584075219    
AX         1.195178872       -0.8351979672         1.090991322    
AX       -0.6341588822E-01    -1.731952893        0.3886162082    
AX         1.244311292        -1.127672487       -0.8185756650    
AX        -1.376026563       -0.2400485928        0.1381279380    
AX        0.5715552538E-02     1.182776415        -1.584097280    
AX         1.366284173        0.2628957752        0.8786854759    
AX        -1.435272909       -0.1608345972         1.223908374    
AX       -0.4399332419        0.6855632286         1.540681412    
AX        0.7471649876         1.440392412        0.1809295799    
AX       -0.1716018536         1.646005000       -0.5119894042    
AX       -0.9114229362        -1.365164452       -0.2772192834    
AX        0.6007753627         1.002014281         1.209064508    
AX       -0.5973013697       -0.9004082202        -1.252570887    
AX        -1.139269060         1.584129081       -0.5275964544E-01
AX       -0.9845040446         1.059122284        -1.107971380    
AX        -1.257104132        0.7750959269        0.6807226515    
AX         1.008336480        -1.513909881        0.2018139803    
AX        -1.234982022       -0.5053220007E-01   -0.9335409326    
AX         1.402284544        0.5904726092       -0.1788276999    
AX       -0.5174239886       -0.4346936214         1.717300453    
AX        0.1767219328        -1.197968679         1.336821805    
AX        0.4591158057       -0.7273974793        -1.521505325    
AX         1.620313646       -0.1146415696       -0.9900432669    
AX       -0.2605467398         1.231955848        0.5769742365    
AX        0.1975647750        -1.266319508       -0.5609325302    
AX        0.4689185752        0.8228386309       -0.6792470573    
AX         1.414387160       -0.4859754061        0.7604135050E-01
AX       -0.2155250675        0.1576057553        -1.207874260    
AX        0.4188052198       -0.7618246440E-01     1.315801463    
AX        -1.715911266        0.7046914737       -0.3226381985    
AX       -0.7526571763       -0.9670034138        0.7401872920    
AX       -0.4693470247        0.4647150330E-01    0.6923758175    
AX        0.3443765841       -0.6823451905        0.4012932209    
AX        0.4392397308        0.3916753517        0.2987367485    
AX        0.6101200851       -0.2312692560       -0.5793717038    
AX       -0.4093666661       -0.4192995618       -0.2900740894    
AX       -0.5693689076        0.6182547625       -0.2357600098    
    38
Energy=    -169.266920456723    
AX        0.8013660871        0.3268571239        -1.584075226    
AX         1.195178865       -0.8351979218         1.090991364    
AX       -0.6341588068E-01    -1.731952898        0.3886162237    
AX         1.244311308        -1.127672505       -0.8185756030    
AX        -1.376026573       -0.2400485760        0.1381279451    
AX        0.5715594886E-02     1.182776479        -1.584097273    
AX         1.366284127        0.2628957814        0.8786854735    
AX        -1.435272892       -0.1608346158         1.223908393    
AX       -0.4399332396        0.6855631468         1.540681415    
AX        0.7471649826         1.440392456        0.1809294969    
AX       -0.1716018685         1.646005013       -0.5119893849    
AX       -0.9114229266        -1.365164446       -0.2772192855    
AX        0.6007753669         1.002014331         1.209064447    
AX       -0.5973014253       -0.9004082139        -1.252570900    
AX        -1.139269074         1.584129112       -0.5275962705E-01
AX       -0.9845039951         1.059122269        -1.107971396    
AX        -1.257104122        0.7750959374        0.6807226814    
AX         1.008336463        -1.513909908        0.2018140443    
AX        -1.234982006       -0.5053215001E-01   -0.9335409326    
AX         1.402284527        0.5904725960       -0.1788277176    
AX       -0.5174239835       -0.4346937256         1.717300453    
AX        0.1767219965        -1.197968710         1.336821840    
AX        0.4591157869       -0.7273975043        -1.521505351    
AX         1.620313673       -0.1146415757       -0.9900433011    
AX       -0.2605467278         1.231955858        0.5769742347    
AX        0.1975647551        -1.266319513       -0.5609325384    
AX        0.4689185499        0.8228385966       -0.6792470380    
AX         1.414387182       -0.4859754204        0.7604137223E-01
AX       -0.2155250553        0.1576057459        -1.207874268    
AX        0.4188051684       -0.7618242975E-01     1.315801445    
AX        -1.715911267        0.7046915097       -0.3226381849    
AX       -0.7526571509       -0.9670034383        0.7401872838    
AX       -0.4693470340        0.4647148665E-01    0.6923757791    
AX        0.3443765666       -0.6823451901        0.4012932129    
AX        0.4392396965        0.3916753453        0.2987367152    
AX        0.6101201240       -0.2312692668       -0.5793717062    
AX       -0.4093666458       -0.4192995448       -0.2900740940    
AX       -0.5693689516        0.6182547649       -0.2357599913    
    38
Energy=    -169.266920456587    
AX        0.8013661529        0.3268571744        -1.584075205    
AX         1.195178871       -0.8351979430         1.090991385    
AX       -0.6341597973E-01    -1.731952869        0.3886162445    
AX         1.244311392        -1.127672545       -0.8185754830    
AX        -1.376026628       -0.2400485658        0.1381279721    
AX        0.5715494092E-02     1.182776565        -1.584097280    
AX         1.366284107        0.2628957619        0.8786854529    
AX        -1.435272835       -0.1608346474         1.223908409    
AX       -0.4399332395        0.6855630659         1.540681382    
AX        0.7471650239         1.440392526        0.1809294091    
AX       -0.1716019892         1.646005204       -0.5119893335    
AX       -0.9114229599        -1.365164383       -0.2772193273    
AX        0.6007753751         1.002014413         1.209064398    
AX       -0.5973014232       -0.9004081735        -1.252570964    
AX        -1.139269106         1.584129121       -0.5275967383E-01
AX       -0.9845040313         1.059122183        -1.107971395    
AX        -1.257104071        0.7750959640        0.6807227185    
AX         1.008336370        -1.513909987        0.2018141219    
AX        -1.234981997       -0.5053213796E-01   -0.9335409544    
AX         1.402284456        0.5904725637       -0.1788277809    
AX       -0.5174239322       -0.4346938560         1.717300515    
AX        0.1767220469        -1.197968724         1.336821853    