          38
Energy of minimum      1=    -173.9284257     first found at step        1 after                  281 function calls
SI        -0.4137383926        1.6246316513       -0.5003751694
SI         0.4137383926       -1.6246316513        0.5003751694
SI         0.7151814374       -1.2551276623       -0.9869758482
SI        -0.7151814374        1.2551276623        0.9869758482
SI         1.1470731747        1.2088069459        0.5327634029
SI        -1.1470731747       -1.2088069459       -0.5327634029
SI         1.7102152905       -0.2277094085        0.2900207796
SI        -1.7102152905        0.2277094085       -0.2900207796
SI         1.0147793592        0.6150563871       -1.2855936181
SI        -1.0147793592       -0.6150563871        1.2855936181
SI         0.4105199536       -0.1256565217        1.6960290167
SI        -0.4105199536        0.1256565217       -1.6960290167
SI        -0.5836706398        0.3477767656        1.6122115062
SI         0.5836706398       -0.3477767656       -1.6122115062
SI         0.0206122668        1.0885121843       -1.3695116901
SI        -0.0206122668       -1.0885121843        1.3695116901
SI        -0.1480571599       -1.6845794308       -0.4484983584
SI         0.1480571599        1.6845794308        0.4484983584
SI         1.2770075001       -1.1952560718       -0.0381185507
SI        -1.2770075001        1.1952560718        0.0381185507
SI        -1.5793703275       -0.6752710361        0.3321313686
SI         1.5793703275        0.6752710361       -0.3321313686
SI        -1.2779996477       -0.3058498455       -1.1549425802
SI         1.2779996477        0.3058498455        1.1549425802
SI         0.5803422884        1.1448346395       -0.4160367768
SI        -0.5803422884       -1.1448346395        0.4160367768
SI        -1.1420779970        0.2880906122        0.6581693552
SI         1.1420779970       -0.2880906122       -0.6581693552
SI        -0.8414036080        0.6566544247       -0.8254498542
SI         0.8414036080       -0.6566544247        0.8254498542
SI         0.2796656272        0.7762696739        1.0675798053
SI        -0.2796656272       -0.7762696739       -1.0675798053
SI        -0.1497471717       -0.1835565687        0.7388871570
SI         0.1497471717        0.1835565687       -0.7388871570
SI         0.7080672433        0.2431295363        0.2038979163
SI        -0.7080672433       -0.2431295363       -0.2038979163
SI        -0.2797625481        0.7136432066        0.1205855908
SI         0.2797625481       -0.7136432066       -0.1205855908
