          52
Energy of minimum      1=    -42.02609887     first found at step      565 after               323165 function calls
HH31       -4.0449374097        1.3104907668       -1.3861382534
CH3        -4.0157600026        0.2801906530       -1.0335577303
HH32       -3.6768460955       -0.3705973582       -1.8382679584
HH33       -5.0115793936       -0.0270164312       -0.7167656474
C          -3.0673372784        0.1709408667        0.1387930682
O          -2.5631114244        1.1836800512        0.6236592653
N          -2.8232816171       -1.0571422695        0.5951073098
H          -3.2712353798       -1.8328375690        0.1302161837
CA         -1.9597693172       -1.3519332018        1.7429824349
HA         -2.3409585043       -0.7957203042        2.6017737205
CB         -2.0670187067       -2.8476685843        2.0689096225
HB1        -1.6994751679       -3.4407174073        1.2297127434
HB2        -3.1067079920       -3.1110461986        2.2691245238
HB3        -1.4706075931       -3.0762443743        2.9534374317
C          -0.4946062689       -0.9202776107        1.5170437208
O           0.0165303709       -0.9662496255        0.3938743166
N           0.1848474476       -0.4985864520        2.5910331113
H          -0.2962468666       -0.5088443437        3.4803619219
CA          1.5804954313       -0.0307469822        2.5959663983
HA          1.7371270246        0.4513646692        3.5624444014
CB          2.5157475305       -1.2514100886        2.5587486108
HB1         2.4342914039       -1.7574048842        1.5961885372
HB2         3.5481474260       -0.9324963006        2.7074400186
HB3         2.2482164534       -1.9481876773        3.3542323108
C           1.9074238260        1.0637594095        1.5445590555
O           3.0332571933        1.1453048458        1.0428702316
N           0.9192648549        1.8911293419        1.1771502831
H           0.0204670482        1.7880048381        1.6274957104
CA          1.0546604976        2.9414301469        0.1605193985
HA          2.0050762771        3.4545130562        0.3186799035
CB         -0.0688367288        3.9624325007        0.3817388479
HB1         0.0492174438        4.7939500168       -0.3143672231
HB2        -1.0400138477        3.4953327793        0.2136819526
HB3        -0.0247047623        4.3496822400        1.4006933608
C           1.0629860684        2.4097210850       -1.2930410774
O           1.5209538580        3.1129211352       -2.1993568596
N           0.5842162170        1.1794790536       -1.5212557887
H           0.2181827112        0.6653011366       -0.7294400315
CA          0.5655612984        0.5027542917       -2.8241415121
HA          0.7976100132        1.2213617833       -3.6117634547
CB         -0.8607859229       -0.0049979151       -3.0686656250
HB1        -1.1300291979       -0.7442619190       -2.3127968585
HB2        -1.5630464373        0.8288036984       -3.0275975682
HB3        -0.9208867690       -0.4673168553       -4.0548353445
C           1.6027303055       -0.6386087492       -2.9351292469
O           2.1148617795       -0.9030508216       -4.0283252733
N           1.9343806208       -1.3022124824       -1.8180423328
H           1.4302131369       -1.0632545797       -0.9709147195
CH3         2.9188131603       -2.3810780143       -1.7391740736
HH31        2.6457978909       -3.1895065417       -2.4205967908
HH32        3.9077186449       -2.0068687131       -2.0118203279
HH33        2.9589867493       -2.7762641114       -0.7224446977
          52
Energy of minimum      2=    -42.01818687     first found at step      780 after               477611 function calls
HH31       -2.2319302108       -2.6727953338       -3.8817414720
CH3        -1.2465577917       -2.2163238763       -3.9654531263
HH32       -0.7850306118       -2.5132773038       -4.9063017142
HH33       -1.3455061133       -1.1323438024       -3.9355671116
C          -0.3852367289       -2.6731023042       -2.8094388171
O           0.6494815992       -3.3051462794       -3.0223474569
N          -0.8195166880       -2.3560672707       -1.5905743521
H          -1.6796542586       -1.8313776154       -1.5223812177
CA         -0.1478912915       -2.6979381515       -0.3311385817
HA          0.9184878043       -2.8374841015       -0.5188512114
CB         -0.7252778715       -4.0262343361        0.1814932481
HB1        -1.7907715674       -3.9154971092        0.3894474459
HB2        -0.5858945565       -4.8054503253       -0.5692170277
HB3        -0.2130055517       -4.3276908195        1.0961433927
C          -0.2864240474       -1.5758506999        0.7202986731
O          -1.1368511149       -0.6876550395        0.5952908024
N           0.5502503710       -1.6034010303        1.7637192738
H           1.2278761559       -2.3505868574        1.8196594426
CA          0.5518835940       -0.5938532981        2.8275676790
HA         -0.4490728958       -0.5517841266        3.2621238342
CB          1.5232005646       -1.0345967713        3.9304775212
HB1         1.2222655960       -2.0070007947        4.3232080381
HB2         2.5372715109       -1.1042020206        3.5332701947
HB3         1.5090095158       -0.3073843492        4.7436621997
C           0.8973659976        0.8037141330        2.2709612936
O           1.9033741802        0.9766320248        1.5754876717
N           0.0388125572        1.7963258929        2.5298876044
H          -0.7632753598        1.5981222417        3.1122822250
CA          0.1715694381        3.1569389270        1.9923111362
HA          1.1518057521        3.5443199434        2.2763740594
CB         -0.8973432561        4.0321438126        2.6596479405
HB1        -0.7885461953        5.0643335639        2.3235302546
HB2        -0.7785169089        4.0030797053        3.7438333390
HB3        -1.8941850274        3.6756055787        2.3948222215
C           0.0781376924        3.2334234096        0.4474684542
O           0.5731773818        4.1934002857       -0.1506076121
N          -0.5124822012        2.2210497666       -0.2037981857
H          -0.9166570011        1.4747546686        0.3487092644
CA         -0.5866653869        2.0783879817       -1.6637225200
HA         -0.4588591808        3.0623954861       -2.1176494588
CB         -1.9989489312        1.5941080057       -2.0227568456
HB1        -2.1156061236        1.5655367332       -3.1068577514
HB2        -2.1680811473        0.5949081611       -1.6208296132
HB3        -2.7414938438        2.2785881649       -1.6101465212
C           0.5230410385        1.1757520714       -2.2623668091
O           0.5395115887        0.9385412501       -3.4748553631
N           1.4483677932        0.6635797725       -1.4361469461
H           1.3971070069        0.9202230501       -0.4574490235
CH3         2.5474156712       -0.2120106819       -1.8426620237
HH31        2.1606819742       -1.0784239588       -2.3820996837
HH32        3.2360831396        0.3300641950       -2.4938751314
HH33        3.0931039398       -0.5584505683       -0.9628416327
          52
Energy of minimum      3=    -41.82554517     first found at step      534 after               303644 function calls
HH31       -3.7752284418        0.8400110881       -1.7043422848
CH3        -3.9564793621        1.3969874236       -0.7861273288
HH32       -4.9985175499        1.2790231222       -0.4917542483
HH33       -3.7395850691        2.4517193697       -0.9509259943
C          -3.0665301904        0.8604750971        0.3120685991
O          -2.3159570792        1.6182015583        0.9265750440
N          -3.1481221264       -0.4466016216        0.5586825940
H          -3.7847015027       -0.9949618009       -0.0003141840
CA         -2.3685541275       -1.1400663453        1.5891206264
HA         -2.5527068043       -0.6419969333        2.5432126078
CB         -2.8810958921       -2.5818219719        1.7069259901
HB1        -2.7179830953       -3.1148294094        0.7686939623
HB2        -2.3483554368       -3.0990165473        2.5062939442
HB3        -3.9469416583       -2.5795949413        1.9401676977
C          -0.8476313296       -1.0930051040        1.3223680889
O          -0.4042052689       -1.0438331574        0.1706545020
N          -0.0448937418       -1.1098925102        2.3948361416
H          -0.4818512707       -1.1753857441        3.3044312854
CA          1.4251869286       -1.0456464478        2.3640292751
HA          1.7456140655       -0.8323623977        3.3853066781
CB          1.9811617538       -2.4357562012        2.0101029212
HB1         1.7246742433       -2.6927512464        0.9814987457
HB2         1.5618347150       -3.1852527297        2.6826066841
HB3         3.0666118485       -2.4386402867        2.1175447677
C           1.9972475578        0.1159963173        1.5095849133
O           3.0208593518       -0.0319521817        0.8346095273
N           1.3073543161        1.2644103139        1.4838486514
H           0.4730951110        1.3302961067        2.0503995227
CA          1.6932938792        2.4452799593        0.7003779587
HA          2.7450420700        2.6593306812        0.8994321744
CB          0.8676986286        3.6369658851        1.2021130350
HB1         1.1820485487        4.5445789498        0.6850225084
HB2        -0.1923208218        3.4679356075        1.0082604198
HB3         1.0227802982        3.7728520050        2.2734088721
C           1.5498395239        2.2585722671       -0.8295076910
O           2.1597870958        3.0062336225       -1.6001428643
N           0.7827597924        1.2544334913       -1.2728811272
H           0.3021145761        0.6892050167       -0.5828769224
CA          0.6184099993        0.8562498877       -2.6756263639
HA          0.9760265031        1.6633059221       -3.3168579035
CB         -0.8835847348        0.6899031312       -2.9456730519
HB1        -1.2826851932       -0.1313408642       -2.3490594262
HB2        -1.4092429309        1.6113228452       -2.6917020724
HB3        -1.0475024858        0.4741394265       -4.0021146955
C           1.4369044782       -0.4027794356       -3.0613929285
O           1.3696316876       -0.8576945211       -4.2090388423
N           2.2106179586       -0.9733433567       -2.1246031934
H           2.2270092295       -0.5421382630       -1.2093314698
CH3         3.0294253428       -2.1694728024       -2.3202388349
HH31        3.5620640548       -2.4109495033       -1.3982969715
HH32        3.7586923250       -2.0000148482       -3.1151205102
HH33        2.3968902301       -3.0163279228       -2.5942488295
          52
Energy of minimum      4=    -41.74098435     first found at step      781 after               478187 function calls
HH31       -1.1048604612       -1.9198990388       -3.7460724630
CH3        -0.8544143411       -2.9699611093       -3.6032853908
HH32       -0.3054006438       -3.3338219634       -4.4708040193
HH33       -1.7696317924       -3.5477918021       -3.4814677229
C          -0.0021178870       -3.1175696973       -2.3628670720
O           1.1227425822       -3.6114198369       -2.4417457885
N          -0.5441478267       -2.6931430870       -1.2223537109
H          -1.4734464414       -2.3001292648       -1.2639586223
CA          0.1005049803       -2.7371390396        0.0954129484
HA          1.1844222425       -2.7396007395       -0.0350294434
CB         -0.3044183843       -4.0455822046        0.7912749446
HB1        -0.0120817023       -4.8982619120        0.1767539293
HB2        -1.3844399820       -4.0684868867        0.9455401374
HB3         0.1954600810       -4.1243079533        1.7576173497
C          -0.2562839757       -1.5043961984        0.9536677814
O          -1.2279473223       -0.7934327909        0.6732834275
N           0.5283296041       -1.2386259080        2.0042560068
H           1.3092966493       -1.8516033243        2.1908984591
CA          0.3363893032       -0.0828235967        2.8867568549
HA         -0.6731439343       -0.1318363265        3.3001961780
CB          1.3271740057       -0.1762784926        4.0543620626
HB1         1.1710072081        0.6613634229        4.7357408938
HB2         2.3522002842       -0.1446602263        3.6811756731
HB3         1.1706177488       -1.1077413950        4.6004561458
C           0.4775468421        1.2432693729        2.1094223857
O           1.4408330641        1.4315328833        1.3599867388
N          -0.5028726261        2.1438043934        2.2553049840
H          -1.2453621769        1.9264408895        2.9063765105
CA         -0.6389538754        3.3891303218        1.4822915844
HA         -1.6504340029        3.7537605751        1.6695516297
CB          0.3184957411        4.4480295664        2.0553034878
HB1         0.1207587286        5.4153548943        1.5918253049
HB2         1.3533625508        4.1649221084        1.8596383788
HB3         0.1685080213        4.5401180534        3.1318048666
C          -0.5592754924        3.2071245685       -0.0593760842
O          -0.1106314867        4.1047279310       -0.7801730767
N          -0.9698571158        2.0369015067       -0.5698148644
H          -1.3299521077        1.3413684370        0.0718782257
CA         -0.9404379559        1.6723517215       -1.9930181535
HA         -0.9346429173        2.5881483015       -2.5863180366
CB         -2.2455550667        0.9313726396       -2.3182340173
HB1        -2.2985240901        0.7277437392       -3.3884934314
HB2        -2.2878645867       -0.0126908010       -1.7744743785
HB3        -3.1014220775        1.5471120687       -2.0380296784
C           0.3171188938        0.8716576066       -2.4185508510
O           0.4316345422        0.4749427725       -3.5832193643
N           1.2602738010        0.6208381741       -1.4985410472
H           1.1210266516        1.0006633950       -0.5687573191
CH3         2.4927222685       -0.1294563253       -1.7384259563
HH31        2.2626794306       -1.1091364391       -2.1609087783
HH32        3.0332483188       -0.2674831479       -0.8000370564
HH33        3.1317667290        0.4146001641       -2.4368205628
          52
Energy of minimum      5=    -41.57403659     first found at step      545 after               310453 function calls
HH31       -4.9136442278        1.0675718698       -1.3003124709
CH3        -3.8652198463        0.9630324224       -1.5765679185
HH32       -3.7396400204        0.0696041757       -2.1868266912
HH33       -3.5466578332        1.8384299014       -2.1412466803
C          -3.0311885030        0.8361383336       -0.3219411573
O          -2.1991460929        1.6986046062       -0.0408960593
N          -3.2525950098       -0.2397759436        0.4324258383
H          -3.9466702816       -0.9022320114        0.1195314542
CA         -2.5615678827       -0.5163594936        1.6956554715
HA         -2.7052302353        0.3440694104        2.3524329410
CB         -3.2237428854       -1.7291147908        2.3635135608
HB1        -3.1063483275       -2.6133060556        1.7346954553
HB2        -2.7577848571       -1.9175089075        3.3318727329
HB3        -4.2862021675       -1.5345476009        2.5177529001
C          -1.0403419188       -0.7195178863        1.5181811214
O          -0.5716982414       -1.1969384922        0.4791596120
N          -0.2569195222       -0.3478113963        2.5373492573
H          -0.6961225980        0.0198305624        3.3704172489
CA          1.2044521855       -0.4923545012        2.5424407783
HA          1.4474354366       -1.5410018607        2.3605773314
CB          1.7114164408       -0.1222720776        3.9422701599
HB1         2.7913994120       -0.2690930474        3.9915380277
HB2         1.4845742637        0.9225724194        4.1610206486
HB3         1.2372744262       -0.7596927391        4.6901599736
C           1.9121786527        0.3405224668        1.4486703755
O           2.9818073493       -0.0477011970        0.9710426175
N           1.3023366089        1.4464453568        1.0011776508
H           0.4313966313        1.7175205433        1.4358397423
CA          1.8161967353        2.2915453416       -0.0830522498
HA          2.8698152544        2.4997436537        0.1123785696
CB          1.0578378735        3.6244934225       -0.0457411487
HB1         1.1702966958        4.0892746685        0.9348395917
HB2        -0.0012161842        3.4605813874       -0.2492445730
HB3         1.4637293199        4.2984095473       -0.8014257549
C           1.7332314679        1.6277014859       -1.4783018389
O           2.4593265398        2.0271874733       -2.3936367883
N           0.8887171847        0.6000509207       -1.6401868609
H           0.3089767699        0.3364774248       -0.8538401026
CA          0.7577320431       -0.2028042009       -2.8621870943
HA          1.0932861382        0.3953507587       -3.7109496882
CB         -0.7328255942       -0.4987902777       -3.0767601242
HB1        -0.8721380473       -1.0297965288       -4.0191864502
HB2        -1.2915293452        0.4368470575       -3.1182209912
HB3        -1.1149794506       -1.1149087156       -2.2619912197
C           1.6252015823       -1.4875252543       -2.8628489145
O           1.6169124236       -2.2389992719       -3.8445219948
N           2.3759467551       -1.7529408375       -1.7823370748
H           2.3424948488       -1.0904128165       -1.0189187726
CH3         3.2410164478       -2.9221951180       -1.6243673836
HH31        2.6479876040       -3.8376167497       -1.6768437990
HH32        3.9938244251       -2.9423467038       -2.4151571298
HH33        3.7466075559       -2.8844407343       -0.6574321290
          52
Energy of minimum      6=    -41.37108102     first found at step      487 after               273494 function calls
HH31       -2.8788930403        2.8197585142        3.4532926265
CH3        -3.4082053972        1.8869647052        3.2620329327
HH32       -3.3889914298        1.2661911805        4.1569577178
HH33       -4.4411609400        2.1028001712        2.9917596086
C          -2.7401365159        1.1481071915        2.1258709315
O          -1.7476691113        1.6271622265        1.5799601056
N          -3.2791351764       -0.0244782444        1.7834679495
H          -4.0950967989       -0.3201888412        2.3009335852
CA         -2.8301562786       -0.9008780599        0.6884090731
HA         -3.3257737328       -1.8606175056        0.8434625244
CB         -3.3587001533       -0.3431081862       -0.6445279915
HB1        -2.8655699746        0.6017011114       -0.8771142252
HB2        -4.4351514236       -0.1798209892       -0.5781113247
HB3        -3.1631978384       -1.0541602333       -1.4482242486
C          -1.3140816964       -1.2281476561        0.6837918877
O          -0.7166464316       -1.4517847783       -0.3733886048
N          -0.6634191144       -1.2078540309        1.8541299668
H          -1.2016091607       -1.0272954814        2.6896252014
CA          0.7792952139       -1.4303757863        2.0033096893
HA          1.0213170615       -2.4105750987        1.5882895784
CB          1.0985852230       -1.4545160420        3.5036073151
HB1         0.8668490088       -0.4873604311        3.9530097195
HB2         2.1582616980       -1.6692297702        3.6494067768
HB3         0.5130176492       -2.2321901079        3.9963075552
C           1.6492582068       -0.3877635157        1.2615484337
O           2.7804191098       -0.6946115655        0.8741500002
N           1.1243496683        0.8189996147        1.0075425138
H           0.1897394370        1.0188675418        1.3475795725
CA          1.8070855249        1.8702289191        0.2448641287
HA          2.8369581531        1.9402908928        0.5999450287
CB          1.1145906126        3.2049349489        0.5487462600
HB1         1.6546749091        4.0178153275        0.0615271007
HB2         0.0890690055        3.1886053785        0.1771578202
HB3         1.1066973330        3.3840513117        1.6248472056
C           1.8670066210        1.5955344231       -1.2768616033
O           2.6879833086        2.1952666153       -1.9776167372
N           1.0312877544        0.6828308784       -1.7920475351
H           0.3793658219        0.2265371526       -1.1664371321
CA          0.9999703592        0.2745064339       -3.2021152825
HA          1.3397942085        1.1117254444       -3.8141477112
CB         -0.4605564654       -0.0054749386       -3.5834007712
HB1        -0.8331473147       -0.8706553893       -3.0342874123
HB2        -0.5287029255       -0.2097263495       -4.6526248338
HB3        -1.0789911288        0.8631699569       -3.3528869328
C           1.9319056012       -0.9193958831       -3.5297718691
O           2.0677296089       -1.2943479375       -4.6999434687
N           2.5785160460       -1.5209356206       -2.5190665724
H           2.4225328630       -1.1580435010       -1.5885127552
CH3         3.4895344560       -2.6572511890       -2.6595732236
HH31        2.9614584937       -3.5107323186       -3.0898979032
HH32        4.3235807703       -2.3915629957       -3.3124707215
HH33        3.8841583212       -2.9429674933       -1.6825039497
          52
Energy of minimum      7=    -41.25225051     first found at step      585 after               335819 function calls
HH31       -4.5614712072        2.5471089765        0.5624845482
CH3        -3.5644147787        2.4588697377        0.1328762810
HH32       -3.0667364767        3.4274933471        0.1607758594
HH33       -3.6439117426        2.1196449130       -0.8990904112
C          -2.7661968153        1.4539009694        0.9316818925
O          -1.7593301526        1.8104421422        1.5443411361
N          -3.2117975801        0.1973298970        0.9206677608
H          -4.0415199722       -0.0048788585        0.3829283137
CA         -2.5684403515       -0.9135200398        1.6305887923
HA         -2.5255184367       -0.6560479134        2.6908195378
CB         -3.4440680860       -2.1653930620        1.4859975436
HB1        -3.5161892064       -2.4524283371        0.4355704467
HB2        -4.4437612347       -1.9668214536        1.8753520008
HB3        -3.0052609930       -2.9897363309        2.0500946690
C          -1.1227857121       -1.1668245261        1.1494159951
O          -0.7949539961       -0.9427497372       -0.0203151787
N          -0.2509511595       -1.6219402923        2.0596612510
H          -0.6006341750       -1.8170430475        2.9882886240
CA          1.1917865628       -1.8069344176        1.8338746039
HA          1.6470242204       -1.9329968528        2.8177966164
CB          1.4211861799       -3.1222149706        1.0696137018
HB1         0.9308341723       -3.9446716666        1.5919804782
HB2         1.0168169215       -3.0468120825        0.0594467253
HB3         2.4896263972       -3.3333983113        1.0100106317
C           1.8885589897       -0.5658311998        1.2166435425
O           2.7574358745       -0.6888116102        0.3481654905
N           1.4581357091        0.6380195085        1.6231634746
H           0.7463480793        0.6536560125        2.3407120123
CA          1.8710379808        1.9404493011        1.0777275406
HA          1.1762727022        2.6730071753        1.4921350083
CB          3.2618139488        2.3043067005        1.6244564846
HB1         3.2666821417        2.2206853947        2.7120088939
HB2         3.5089878452        3.3312490761        1.3527214426
HB3         4.0161158424        1.6353267269        1.2087958176
C           1.7199624551        2.0796023322       -0.4607639761
O           2.4628483101        2.8281188547       -1.1048081185
N           0.7710634874        1.3458710355       -1.0561803320
H           0.2006153107        0.7493909139       -0.4684131798
CA          0.4840466766        1.3126370461       -2.4951332688
HA          0.9851468307        2.1549282425       -2.9744796267
CB         -1.0268195623        1.5185477064       -2.6762079853
HB1        -1.3342132130        2.4470787336       -2.1933338748
HB2        -1.5739038330        0.6835540817       -2.2363875344
HB3        -1.2672507869        1.5817480277       -3.7381326789
C           1.0036379612        0.0374287527       -3.2076803157
O           0.7598267005       -0.1459838876       -4.4059248424
N           1.7151336028       -0.8485169846       -2.4944053313
H           1.8947053122       -0.6275191845       -1.5217867522
CH3         2.2568992969       -2.1057519820       -3.0090847960
HH31        2.8016971552       -2.6266428623       -2.2192969167
HH32        2.9394664294       -1.9095727809       -3.8385095486
HH33        1.4464163749       -2.7473532140       -3.3608624490
          52
Energy of minimum      8=    -41.07684037     first found at step      530 after               300967 function calls
HH31       -3.7924570558        2.1004652825        3.6905207167
CH3        -3.8994164345        2.5910837797        2.7238287318
HH32       -3.4824118974        3.5961814523        2.7762009182
HH33       -4.9548795240        2.6473853810        2.4602215859
C          -3.1657039859        1.7910018379        1.6727173618
O          -2.2425503947        2.3002313875        1.0380433865
N          -3.5596922760        0.5283597468        1.5013841888
H          -4.3263138961        0.1933580121        2.0675340007
CA         -3.0190307873       -0.3744471819        0.4763026512
HA         -3.1480215853        0.0991056823       -0.4986797642
CB         -3.8531643101       -1.6621126216        0.4932716074
HB1        -4.9041589356       -1.4269585426        0.3187229149
HB2        -3.7499205100       -2.1644963946        1.4565306838
HB3        -3.5088197399       -2.3323148394       -0.2957661580
C          -1.5125226844       -0.6794312537        0.6396272203
O          -0.8354190337       -0.9767074124       -0.3480878261
N          -0.9739129667       -0.5571035040        1.8620177407
H          -1.6046942863       -0.3312171706        2.6185430993
CA          0.4531121539       -0.6805841943        2.1961636339
HA          0.5651320339       -0.2915524690        3.2096201452
CB          0.8298055978       -2.1709263089        2.2529216837
HB1         0.1432405817       -2.7023062919        2.9133074272
HB2         0.7805482283       -2.6093415586        1.2553867219
HB3         1.8431808895       -2.2825039637        2.6406552971
C           1.3970862661        0.1885492083        1.3241404583
O           2.5552287092       -0.1721073890        1.0919725780
N           0.8999725432        1.3122648492        0.7884288909
H          -0.0543196947        1.5662129661        1.0110029983
CA          1.6469354863        2.2061389291       -0.1042326273
HA          2.5751484777        2.4916800177        0.3942059449
CB          0.8077647391        3.4739095403       -0.3085078797
HB1         0.5853784535        3.9327531621        0.6559849674
HB2         1.3638828278        4.1884782838       -0.9168536102
HB3        -0.1267803874        3.2273929940       -0.8150085809
C           2.0332267726        1.5636120694       -1.4588088877
O           2.9687818541        2.0311685532       -2.1152573672
N           1.3545200184        0.4830007495       -1.8685169089
H           0.5863513375        0.1555177343       -1.2940782600
CA          1.6679526086       -0.2958449608       -3.0724654142
HA          2.0848399377        0.3778900435       -3.8230327248
CB          0.3518613311       -0.8503912106       -3.6350699447
HB1        -0.3547792531       -0.0360036019       -3.8009486644
HB2        -0.0809208797       -1.5686397639       -2.9377281311
HB3         0.5397016904       -1.3499233900       -4.5862855176
C           2.7202292576       -1.4104783182       -2.8424832804
O           3.1342489218       -2.0742871261       -3.7997332434
N           3.1607051378       -1.6298924706       -1.5935549122
H           2.7899455174       -1.0426357835       -0.8561672995
CH3         4.1398322320       -2.6480816066       -1.2133426224
HH31        3.7710708107       -3.6412608757       -1.4779315570
HH32        4.3148896009       -2.6123243476       -0.1362670580
HH33        5.0853165022       -2.4718671105       -1.7304493152
          52
Energy of minimum      9=    -40.93501613     first found at step      814 after               499606 function calls
HH31        0.7412234801       -3.9231805202       -5.4078798484
CH3         0.4910000680       -3.0585798734       -4.7942514547
HH32       -0.5631181672       -2.8145517477       -4.9201714226
HH33        1.0993134424       -2.2074908752       -5.0978973793
C           0.7610232728       -3.3710181951       -3.3393175273
O           1.1972644228       -4.4762047148       -3.0161204462
N           0.4997058104       -2.3969217070       -2.4687395926
H           0.1271082499       -1.5318279029       -2.8333680927
CA          0.6753952372       -2.4878273482       -1.0148198849
HA          0.5914068948       -3.5321962011       -0.7078570988
CB          2.0859733448       -1.9924198097       -0.6622710099
HB1         2.8319747214       -2.6094724436       -1.1649419587
HB2         2.2455029018       -2.0578153361        0.4149199323
HB3         2.2075358605       -0.9559953508       -0.9800832877
C          -0.4048173864       -1.6928012737       -0.2513159367
O          -0.9743949083       -0.7286712500       -0.7747447570
N          -0.6697390452       -2.0688866140        1.0045751730
H          -0.1605431575       -2.8507298128        1.3917480137
CA         -1.6506455338       -1.3967985481        1.8620320711
HA         -2.6122271850       -1.3944002133        1.3444683331
CB         -1.8184613258       -2.2061740295        3.1547420574
HB1        -2.1423043502       -3.2208289188        2.9181803570
HB2        -0.8732182395       -2.2468005749        3.6986355118
HB3        -2.5724555571       -1.7350333472        3.7870644022
C          -1.2489097077        0.0673452679        2.1408890275
O          -0.1212798470        0.3473921301        2.5606670319
N          -2.1587675541        1.0108756908        1.8737506517