          52
Energy of minimum      1=    -41.72299240     first found at step      478 after               310424 function calls
HH31        2.7623598845        3.4207992622       -0.4041550337
CH3         1.8838706247        3.7460794440        0.1519468057
HH32        2.1961490490        4.2482317649        1.0667403213
HH33        1.2982841026        4.4327057745       -0.4581066836
C           1.0381850152        2.5467949158        0.5068116327
O           1.3832510100        1.4198477109        0.1557429861
N          -0.0871232842        2.7835499271        1.1808530756
H          -0.2976857466        3.7406963921        1.4258595407
CA         -0.9832266535        1.7336156274        1.6821638261
HA         -0.4177114296        1.0969038699        2.3640402620
CB         -2.1025209567        2.4101797209        2.4840951961
HB1        -2.7587655439        1.6500321686        2.9105718718
HB2        -1.6740919887        2.9985897341        3.2968720057
HB3        -2.6889914886        3.0631154753        1.8354912110
C          -1.5583017808        0.8255771302        0.5720296518
O          -1.7808830488       -0.3658939991        0.8011829106
N          -1.7381016173        1.3558560083       -0.6443750218
H          -1.5515606718        2.3420402509       -0.7611757291
CA         -2.2003717744        0.5990803906       -1.8131563017
HA         -3.1066362855        0.0563636762       -1.5379494607
CB         -2.5639032319        1.6056439877       -2.9122559013
HB1        -2.9620171462        1.0746572637       -3.7781411063
HB2        -1.6789145496        2.1672831091       -3.2160357267
HB3        -3.3238010128        2.2976599347       -2.5460968080
C          -1.1744837752       -0.4426750791       -2.3183647253
O          -1.5641742807       -1.4438410203       -2.9269759198
N           0.1213752209       -0.2346232972       -2.0471621565
H           0.3706676893        0.6133200820       -1.5544324743
CA          1.2046303811       -1.1728882373       -2.3611238855
HA          0.8889270447       -1.8326269645       -3.1711537529
CB          2.4041358995       -0.3619657606       -2.8682523574
HB1         3.2089453800       -1.0400115298       -3.1555002451
HB2         2.1122252691        0.2263494898       -3.7393695172
HB3         2.7659225753        0.3072496273       -2.0861660985
C           1.5832875521       -2.0699401798       -1.1622887313
O           1.9219089541       -3.2425229235       -1.3493662600
N           1.5029628026       -1.5433754060        0.0665960410
H           1.2874893082       -0.5562428949        0.1455723412
CA          1.8313938386       -2.2672626139        1.2993793088
HA          2.7549204684       -2.8262380755        1.1375533511
CB          2.0977729120       -1.2292673765        2.3970004452
HB1         2.4127864448       -1.7352615647        3.3105955981
HB2         1.1913477896       -0.6588313484        2.6019916769
HB3         2.8896460649       -0.5482974001        2.0813571294
C           0.7504307379       -3.2846962437        1.7346102433
O           1.0723078532       -4.2849536213        2.3855246551
N          -0.5205808248       -3.0538634690        1.3741815478
H          -0.7175571069       -2.1880366779        0.8854479763
CH3        -1.6529751074       -3.9276107303        1.6807523919
HH31       -1.5088496485       -4.9056337513        1.2170746313
HH32       -1.7456191127       -4.0576635020        2.7609628454
HH33       -2.5763358053       -3.4879990715        1.2986024166
          52
Energy of minimum      2=    -41.05834172     first found at step      933 after               604343 function calls
HH31        1.9715524653        5.2794489941        2.1112486680
CH3         1.8378826772        4.8032795823        1.1406530895
HH32        1.1600318099        5.4016528134        0.5331033774
HH33        2.8014627313        4.7206363899        0.6391039748
C           1.2488892728        3.4260092833        1.3387219802
O           1.8525859168        2.4303357718        0.9415944480
N           0.0562346899        3.3666082977        1.9323091892
H          -0.3679919915        4.2357678329        2.2239983508
CA         -0.6345549107        2.1171844004        2.2798650252
HA          0.0359862383        1.5176536065        2.8982558367
CB         -1.8634818107        2.4779467122        3.1249068817
HB1        -2.3672459659        1.5657948436        3.4481789291
HB2        -2.5595494440        3.0797369273        2.5381749332
HB3        -1.5557721154        3.0393455858        4.0083801312
C          -1.0250274312        1.2498452625        1.0604855995
O          -1.2013316680        0.0356348003        1.1946327862
N          -1.1081323737        1.8417308278       -0.1382924788
H          -0.9680403911        2.8412708355       -0.1790861745
CA         -1.3989918195        1.1399764200       -1.3934953687
HA         -2.3388605761        0.5975957475       -1.2747267962
CB         -1.5931309947        2.1967007033       -2.4886677456
HB1        -2.3939359529        2.8820231992       -2.2067087319
HB2        -0.6699131220        2.7597357155       -2.6359536005
HB3        -1.8646681964        1.7082567116       -3.4256806213
C          -0.3193280125        0.1065005837       -1.7928321543
O          -0.6111106448       -0.8315460499       -2.5402234011
N           0.9069844112        0.2257753089       -1.2642234159
H           1.0941757023        1.0181901217       -0.6623544534
CA          2.0052787025       -0.7180530166       -1.5026508046
HA          2.1216229086       -0.8434121566       -2.5807727604
CB          3.2943969404       -0.0908221458       -0.9568830659
HB1         3.2224758788        0.0326837202        0.1247972279
HB2         4.1426703988       -0.7377575895       -1.1845565226
HB3         3.4608392941        0.8822116866       -1.4213414287
C           1.7632987274       -2.1241887256       -0.9024364452
O           2.4063360283       -3.0913511911       -1.3215956956
N           0.8237699026       -2.2593581390        0.0440520130
H           0.3464509022       -1.4268482893        0.3644016543
CA          0.4138627226       -3.5392166241        0.6336636500
HA          1.2999270523       -4.1660176919        0.7490895594
CB         -0.1396460056       -3.2566142214        2.0369336211
HB1        -1.0510529796       -2.6613583497        1.9674124224
HB2        -0.3688172970       -4.1977810849        2.5383429074
HB3         0.6013484555       -2.7164599572        2.6279727980
C          -0.5914064780       -4.3386914520       -0.2340178481
O          -0.8902855305       -5.4965610534        0.0794323254
N          -1.1173251505       -3.7463538321       -1.3179902915
H          -0.8252918786       -2.7983401417       -1.5208322640
CH3        -2.0765285728       -4.3661847490       -2.2325047644
HH31       -1.6436625655       -5.2636646169       -2.6792869418
HH32       -2.9852148063       -4.6421424694       -1.6934397344
HH33       -2.3377651436       -3.6668091384       -3.0291578702
          52
Energy of minimum      3=    -40.75329850     first found at step      373 after               239159 function calls
HH31        3.5282941534        0.1775438217        2.3551607321
CH3         2.7282873567        0.0111485437        3.0756547281
HH32        2.6654982768        0.8601849786        3.7551742330
HH33        2.9317686104       -0.8954424254        3.6441879262
C           1.4159101205       -0.1437485396        2.3458917999
O           1.3755618844       -0.0615071042        1.1199975907
N           0.3309346514       -0.3387603881        3.0947759159
H           0.4540374517       -0.3822865044        4.0965045532
CA         -1.0102814319       -0.6130054475        2.5598649182
HA         -0.9491108874       -1.5038259104        1.9323928169
CB         -1.9306278172       -0.9312212440        3.7455092874
HB1        -2.9225319853       -1.1996446708        3.3790734781
HB2        -2.0161257672       -0.0609313089        4.3983177037
HB3        -1.5287151623       -1.7714956434        4.3136328703
C          -1.5954936509        0.5201380235        1.6831018192
O          -2.4930830630        0.2731731779        0.8729017687
N          -1.0721760259        1.7471625770        1.8017284151
H          -0.3683832185        1.8905086742        2.5120003034
CA         -1.4311893943        2.8894376118        0.9541757596
HA         -2.5166863981        2.9102473036        0.8413150653
CB         -1.0099144620        4.1681281609        1.6903732259
HB1        -1.3203251472        5.0418912353        1.1156656350
HB2        -1.4868255691        4.2069989297        2.6709159828
HB3         0.0741125509        4.1910346709        1.8136900303
C          -0.8251934827        2.8284842768       -0.4700780069
O          -1.2951806341        3.5400789414       -1.3636072323
N           0.1977059884        1.9899192617       -0.6927721551
H           0.5432324039        1.4552782966        0.0946789089
CA          0.9026288600        1.8310257450       -1.9732493154
HA          0.4396345560        2.4697023536       -2.7270070562
CB          2.3437600285        2.3185238454       -1.7739900428
HB1         2.8851658851        2.2597018643       -2.7191939296
HB2         2.3413616696        3.3552461650       -1.4342666999
HB3         2.8510374052        1.6977638082       -1.0335564818
C           0.8666600538        0.3901903752       -2.5337973680
O           0.9307372211        0.2027148042       -3.7532326607
N           0.7478740896       -0.6256309484       -1.6711924611
H           0.7577084388       -0.4137399839       -0.6815880143
CA          0.6467543436       -2.0367857512       -2.0524739754
HA          1.4388276006       -2.2534251384       -2.7721967059
CB          0.9038506008       -2.8925179401       -0.8043598044
HB1         1.8776285133       -2.6455860084       -0.3785980029
HB2         0.8962824596       -3.9499263519       -1.0721371591
HB3         0.1284368513       -2.7089641032       -0.0591569855
C          -0.7020497924       -2.3903213477       -2.7235754406
O          -1.7229427333       -1.7259212070       -2.5056065505
N          -0.7114049076       -3.4641001972       -3.5256605148
H           0.1595779845       -3.9644112768       -3.6460883718
CH3        -1.8876309622       -3.9665151565       -4.2378059683
HH31       -2.6697451309       -4.2385450353       -3.5258539254
HH32       -1.6229337302       -4.8487432111       -4.8240255217
HH33       -2.2747186561       -3.1992246027       -4.9116151174
          52
Energy of minimum      4=    -40.64488431     first found at step      465 after               302347 function calls
HH31        0.8247515917        2.0936432382        4.4396420902
CH3         1.5487719533        1.4564749820        3.9332282194
HH32        2.2995033791        2.0748512169        3.4424094504
HH33        2.0314429232        0.8054998461        4.6611675627
C           0.8372134018        0.6105257666        2.9039045278
O           1.1367254541        0.6995445178        1.7142771873
N          -0.1266690701       -0.1938200041        3.3531638727
H          -0.3094337075       -0.2001382613        4.3467378022
CA         -0.8654928776       -1.1474147166        2.5149142627
HA         -0.1450506672       -1.8222231822        2.0493429491
CB         -1.7704925222       -1.9795181880        3.4326591119
HB1        -2.2941519079       -2.7347491373        2.8446750957
HB2        -1.1691792038       -2.4821335977        4.1917370247
HB3        -2.5048703729       -1.3363589911        3.9205043455
C          -1.6762519721       -0.4857128928        1.3768707525
O          -1.8978371171       -1.1064019623        0.3340257084
N          -2.0664494905        0.7855715640        1.5352860585
H          -1.8738572446        1.2298902141        2.4221099474
CA         -2.7508619563        1.5772461258        0.5059458585
HA         -3.5797874229        0.9871789273        0.1106510704
CB         -3.3367827172        2.8221046573        1.1849900734
HB1        -4.0055380596        2.5244659364        1.9940590897
HB2        -3.9049991087        3.4037417239        0.4576797828
HB3        -2.5348713776        3.4430636262        1.5877897436
C          -1.8473327834        1.9581329047       -0.6926144404
O          -2.3591134148        2.2999218246       -1.7631393701
N          -0.5188684005        1.8821479086       -0.5308474904
H          -0.1702695508        1.6165514811        0.3825209116
CA          0.4894744406        2.1673042394       -1.5602641338
HA         -0.0055113216        2.5806463656       -2.4402435667
CB          1.4267853282        3.2512095235       -1.0090668226
HB1         1.9692045861        2.8709015694       -0.1421832713
HB2         0.8480176734        4.1282144750       -0.7158318020
HB3         2.1434555587        3.5460801512       -1.7765727193
C           1.2570086126        0.9115357845       -2.0447739244
O           2.1480078671        1.0179495796       -2.8946251733
N           0.9293823279       -0.2750899461       -1.5186219222
H           0.1763633067       -0.3020351000       -0.8485503446
CA          1.5655612745       -1.5479303542       -1.8683789488
HA          2.6442660759       -1.3873603502       -1.9230238441
CB          1.3049476476       -2.5473500267       -0.7328562787
HB1         1.8297181065       -3.4820006005       -0.9351592988
HB2         0.2363441068       -2.7516473429       -0.6518991803
HB3         1.6683021230       -2.1391244144        0.2115111990
C           1.1089613620       -2.0952559018       -3.2414466290
O           0.0197904674       -1.7724006213       -3.7324917257
N           1.9385342671       -2.9511355942       -3.8543042099
H           2.8065465526       -3.1759935368       -3.3858920414
CH3         1.6806132571       -3.5851307049       -5.1483855259
HH31        2.5156427515       -4.2332058540       -5.4218284626
HH32        1.5578985390       -2.8238563761       -5.9216880917
HH33        0.7704373315       -4.1864104922       -5.0971144801
          52
Energy of minimum      5=    -40.64488431     first found at step      315 after               197955 function calls
HH31        1.5260235903        1.6226014320        4.4511112523
CH3         1.3420946383        0.5727228519        4.2262357678
HH32        2.2879620061        0.0708728462        4.0253093976
HH33        0.8514990202        0.0998199813        5.0761265796
C           0.4464685029        0.4700162595        3.0143124673
O           0.8378986874       -0.1079963998        2.0016285142
N          -0.7490480342        1.0538255399        3.1025305742
H          -0.9867506057        1.5107739389        3.9716264456
CA         -1.7820750708        0.9844469908        2.0604616397
HA         -2.0074839191       -0.0667832193        1.8726692119
CB         -3.0504817920        1.6510316472        2.6086271596
HB1        -3.3633280973        1.1551813068        3.5287678347
HB2        -2.8626898273        2.7065542491        2.8124991195
HB3        -3.8544629750        1.5680108135        1.8757970697
C          -1.3566768519        1.6104457962        0.7123205211
O          -1.8419888433        1.1945735476       -0.3428587180
N          -0.4112972677        2.5589079534        0.7261284827
H          -0.0713909347        2.8714586500        1.6248738289
CA          0.1666046609        3.1711653994       -0.4763192159
HA         -0.6489709801        3.4777553031       -1.1338857160
CB          0.9245438854        4.4323894666       -0.0416711665
HB1         1.3169790655        4.9459166203       -0.9205547178
HB2         1.7551118905        4.1646626692        0.6135986726
HB3         0.2500878990        5.1082833172        0.4862415235
C           1.0753037437        2.2158709801       -1.2885168685
O           1.3309365426        2.4681340351       -2.4699473264
N           1.5437631339        1.1186779408       -0.6773924090
H           1.3116691017        0.9889307513        0.3001568117
CA          2.3849417513        0.0846630215       -1.2946441332
HA          2.6818655533        0.4139052071       -2.2914702264
CB          3.6629299900       -0.0421401824       -0.4532834247
HB1         4.3486907543       -0.7465914481       -0.9256294766
HB2         3.4175879869       -0.4002803238        0.5476575430
HB3         4.1555915812        0.9282943607       -0.3781980017
C           1.6637135836       -1.2735718184       -1.4839611364
O           2.2677365193       -2.2343771397       -1.9733077805
N           0.3838478664       -1.3712476122       -1.1036208516
H          -0.0628940072       -0.5457266410       -0.7352508785
CA         -0.4291383380       -2.5855383164       -1.2119161228
HA          0.1786683129       -3.4337376860       -0.8901992566
CB         -1.6084922276       -2.4669264395       -0.2366076975
HB1        -2.1896108113       -3.3900257085       -0.2450437468
HB2        -1.2375987548       -2.2959259287        0.7751736096
HB3        -2.2551684568       -1.6387655589       -0.5301453990
C          -0.8968335546       -2.8734123913       -2.6582056088
O          -0.9924412896       -1.9671121831       -3.4955425453
N          -1.2148256702       -4.1430958337       -2.9464774050
H          -1.1216777634       -4.8269651608       -2.2068406100
CH3        -1.6882298604       -4.6120713435       -4.2499611784
HH31       -0.9399498461       -4.4050293761       -5.0179488124
HH32       -2.6177391430       -4.1046243703       -4.5166002236
HH33       -1.8712753456       -5.6879477949       -4.2178533730
          52
Energy of minimum      6=    -40.64488431     first found at step      316 after               198620 function calls
HH31        1.6723002310        1.1166336986        4.7390533480
CH3         1.1557240587        1.6938018365        3.9731149875
HH32        1.8534848841        2.3888060513        3.5072943332
HH33        0.3359253830        2.2487291254        4.4276803984
C           0.6042638487        0.7527541257        2.9282352126
O           0.9539408026        0.8572949437        1.7536534775
N          -0.2807825827       -0.1528478711        3.3459113215
H          -0.5140111685       -0.1646245677        4.3288140241
CA         -0.8567586224       -1.2008894645        2.4928425587
HA         -0.0382480621       -1.7929449588        2.0797192657
CB         -1.7050145335       -2.1194341563        3.3818947068
HB1        -2.1042436538       -2.9409354445        2.7851787927
HB2        -1.0898928201       -2.5347268449        4.1816174710
HB3        -2.5348032520       -1.5600908544        3.8172604220
C          -1.6781747362       -0.6586768686        1.3005323121
O          -1.7695407156       -1.3181720892        0.2619761058
N          -2.2230667804        0.5597424262        1.4103538893
H          -2.1314227284        1.0381558171        2.2956162508
CA         -2.9402516737        1.2477531901        0.3300773921
HA         -3.6718503542        0.5571460151       -0.0934551335
CB         -3.7037553620        2.4251929835        0.9503794034
HB1        -4.3748476428        2.0635263191        1.7309225222
HB2        -4.2970384981        2.9233827003        0.1822818008
HB3        -3.0029772640        3.1433867060        1.3793400575
C          -2.0254690025        1.7135811067       -0.8293032590
O          -2.5163565346        1.9747551337       -1.9318368251
N          -0.7077617569        1.7983959200       -0.5986217668
H          -0.3793129655        1.5909455478        0.3370011187
CA          0.3132418529        2.1843725491       -1.5816485781
HA         -0.1795222236        2.5216826838       -2.4946829980
CB          1.0859529604        3.3806604325       -1.0080340334
HB1         1.6225628919        3.0815612915       -0.1064080818
HB2         1.8026791534        3.7459406147       -1.7445828532
HB3         0.3932944250        4.1874605453       -0.7643247890
C           1.2477966569        1.0208165372       -1.9982509546
O           2.1639326952        1.2183383690       -2.8039373683
N           1.0345746242       -0.1875724060       -1.4629117596
H           0.2554585113       -0.2927542894       -0.8315050349
CA          1.8337284114       -1.3814680692       -1.7512564903
HA          2.8874240111       -1.0949599227       -1.7546475305
CB          1.6325939749       -2.3861242872       -0.6082859277
HB1         1.8947658572       -1.9223476818        0.3439124403
HB2         0.5926625271       -2.7144180407       -0.5771288269
HB3         2.2736615214       -3.2550809947       -0.7626519740
C           1.5182072058       -2.0013878165       -3.1331065092
O           0.4262273228       -1.8180778512       -3.6859459475
N           2.4740521775       -2.7626626149       -3.6836850490
H           3.3363961449       -2.8752886120       -3.1668730453
CH3         2.3615517274       -3.4437692804       -4.9746369689
HH31        3.2803480312       -3.9925605340       -5.1907114973
HH32        2.1913530753       -2.7151259508       -5.7700649565
HH33        1.5269979662       -4.1478751984       -4.9561654543
          52
Energy of minimum      7=    -40.37812355     first found at step      536 after               345725 function calls
HH31        1.4313509129        1.5951367074        5.7337086441
CH3         1.9024975653        1.7755958470        4.7682601314
HH32        2.3960300888        0.8662902597        4.4273935177
HH33        2.6377488955        2.5735422158        4.8643091875
C           0.8535909858        2.1820764275        3.7575306231
O          -0.3292500342        2.2616752262        4.0907189067
N           1.2867894558        2.4399612941        2.5243293289
H           2.2743982802        2.3424962363        2.3418294455
CA          0.4175579684        2.8138910997        1.4043724716
HA         -0.2786810864        3.5799525485        1.7518124039
CB          1.2857370128        3.4364866437        0.3014248676
HB1         0.6538478568        3.7829620294       -0.5176793042
HB2         1.8376821722        4.2888830635        0.7007128193
HB3         1.9919428305        2.6978442203       -0.0819234689
C          -0.4207094189        1.6296321511        0.8734963944
O          -0.0415063883        0.4617409794        1.0104297290
N          -1.5406186758        1.9295081993        0.2042018769
H          -1.7950039685        2.9036833963        0.1127881276
CA         -2.4738965494        0.9285329979       -0.3327128357
HA         -2.8057750206        0.2934050430        0.4907702226
CB         -3.6978453758        1.6725665733       -0.8824392120
HB1        -4.4346166467        0.9520710667       -1.2407945295
HB2        -4.1523973579        2.2746043206       -0.0941680158
HB3        -3.4038587233        2.3213271482       -1.7092943445
C          -1.8518890229        0.0015580830       -1.4033663507
O          -2.3007069395       -1.1350051002       -1.5769179705
N          -0.7843934220        0.4471177322       -2.0790277737
H          -0.4824363477        1.3954749816       -1.9075170988
CA         -0.0322058313       -0.3395279427       -3.0628493904
HA         -0.7343928092       -0.7232416877       -3.8053129253
CB          0.9410523806        0.6098607881       -3.7739869866
HB1         1.6627445187        1.0117627939       -3.0607530080
HB2         1.4772371226        0.0685455593       -4.5548170804
HB3         0.3901982690        1.4317667794       -4.2338717131
C           0.7085237053       -1.5581292387       -2.4601628114
O           1.0575975963       -2.4879364389       -3.1937992407
N           0.9245143229       -1.5855619581       -1.1372358272
H           0.6305094008       -0.7881042466       -0.5863055584
CA          1.5317331764       -2.7113196487       -0.4167620638
HA          2.2946661016       -3.1593294252       -1.0558519497
CB          2.2413838246       -2.1542216991        0.8250653168
HB1         2.9468660826       -1.3749760430        0.5332137941
HB2         1.5106763718       -1.7393270511        1.5202785941
HB3         2.7898038365       -2.9538019163        1.3246195443
C           0.5319407601       -3.8396165524       -0.0569958430
O           0.9463813364       -4.8981388637        0.4288649121
N          -0.7750132793       -3.6364454789       -0.2868685189
H          -1.0456759915       -2.7490902675       -0.6923835690
CH3        -1.8387149897       -4.5994717473       -0.0011982514
HH31       -1.8570857985       -4.8335301341        1.0652571889
HH32       -2.8062069289       -4.1822521769       -0.2873890805
HH33       -1.6721222251       -5.5209247955       -0.5630033261
          52
Energy of minimum      8=    -40.29735456     first found at step      534 after               344158 function calls
HH31        0.7944484971        1.8379807893        6.4945090057
CH3         0.9799529445        1.5168830974        5.4702248565
HH32        1.8487121023        2.0418926992        5.0750128169
HH33        1.1653821339        0.4436358875        5.4521597841
C          -0.2252522564        1.8299724447        4.6118065941
O          -1.2139634414        2.3694829960        5.1094477724
N          -0.1384480090        1.4894532638        3.3266591043
H           0.7105975398        1.0363382739        3.0196248337
CA         -1.1902710644        1.6867691063        2.3223989436
HA         -2.1617277612        1.7093284810        2.8201623216
CB         -0.9647121848        3.0453520833        1.6401080186
HB1        -0.9731943051        3.8410320099        2.3864832656
HB2        -1.7596472619        3.2369485270        0.9179982251
HB3        -0.0036165638        3.0500162569        1.1230142428
C          -1.2275481430        0.5407411920        1.2893944539
O          -0.2350006115       -0.1657858308        1.0855602395
N          -2.3584295308        0.3836571528        0.5909204343
H          -3.1338573429        0.9996575000        0.7948620842
CA         -2.5786936926       -0.6847654964       -0.3947489793
HA         -2.4210292625       -1.6449644363        0.1000739845
CB         -4.0442128234       -0.6163263742       -0.8435046088
HB1        -4.2540872524       -1.4322449293       -1.5367541936
HB2        -4.7029690185       -0.7138286208        0.0207654415
HB3        -4.2408176005        0.3338706650       -1.3429769943
C          -1.6170568925       -0.6310408868       -1.6049805705
O          -1.3445896429       -1.6613886703       -2.2274775164
N          -1.0499600400        0.5442943245       -1.9074964961
H          -1.3350060087        1.3539391858       -1.3753466234
CA         -0.0562170899        0.7424691831       -2.9685398127
HA         -0.4647219919        0.3464738817       -3.9001285001
CB          0.1466762205        2.2534619807       -3.1418181411
HB1         0.8382209837        2.4389700135       -3.9649596019
HB2         0.5586078433        2.6846480587       -2.2277866241
HB3        -0.8061012427        2.7331508388       -3.3711059026
C           1.2885503845        0.0188066875       -2.7139439707
O           2.0536609878       -0.2036393898       -3.6572069075
N           1.5741194161       -0.3805915586       -1.4663282594
H           0.9176946342       -0.1559854537       -0.7285050272
CA          2.7640840492       -1.1552046223       -1.0936341734
HA          3.6020849597       -0.8169366892       -1.7056526848
CB          3.1019431033       -0.8331093836        0.3685097697
HB1         3.2106394485        0.2447274087        0.4973336983
HB2         2.3116933980       -1.1988532759        1.0251807821
HB3         4.0410135386       -1.3150579037        0.6433985120
C           2.6220294282       -2.6798243674       -1.3332793266
O           3.6032889392       -3.4190003235       -1.1953367774
N           1.4221715894       -3.1644417039       -1.6906971534
H           0.6621261530       -2.5030475662       -1.7914273574
CH3         1.1280241405       -4.5738782594       -1.9504259521
HH31        1.3270334880       -5.1699453189       -1.0573716871
HH32        1.7503116968       -4.9430321433       -2.7683114487
HH33        0.0780634147       -4.6910607849       -2.2258638944
          52
Energy of minimum      9=    -39.44390506     first found at step      491 after               318643 function calls
HH31        2.7821971086        0.7884665523        3.2928149501
CH3         1.9894888679        0.1346384349        3.6543173904
HH32        2.3054911519       -0.9042081082        3.5690112436
HH33        1.7757129929        0.3636310877        4.6975419707
C           0.7390955149        0.3482796194        2.8313337464
O           0.7308877628        1.1898386685        1.9331685741
N          -0.3125277423       -0.4091382703        3.1512085385
H          -0.1908833312       -1.0687641018        3.9057481945
CA         -1.6300743662       -0.3730884245        2.4990830598
HA         -2.1828055111       -1.2535511636        2.8308622695
CB         -2.3922920988        0.8539385809        3.0373809860
HB1        -3.4366246764        0.8176460802        2.7247780068
HB2        -1.9362603746        1.7748639055        2.6705180477
HB3        -2.3658315655        0.8551758754        4.1282513387
C          -1.5609559198       -0.4793227142        0.9521113077
O          -0.6516776705       -1.1066621381        0.3984711339
N          -2.5191969660        0.1209338675        0.2351680977
H          -3.2486372207        0.6108831240        0.7336783564
CA         -2.6167480140        0.0684204763       -1.2293560626
HA         -2.6519112810       -0.9800314179       -1.5313903031
CB         -3.9436954627        0.7235681700       -1.6342821484
HB1        -4.7751766825        0.2143186440       -1.1446436480
HB2        -3.9453177790        1.7768418005       -1.3486606536
HB3        -4.0755824100        0.6484062989       -2.7146648038
C          -1.4214586064        0.7155342629       -1.9694655319
O          -1.1756090350        0.3946096565       -3.1358453880
N          -0.6522086648        1.5869866267       -1.3023765942