          52
Energy of minimum      1=    -41.72299240     first found at step      538 after               333119 function calls
HH31       -3.4746773684        2.7763940219        2.0558942538
CH3        -2.9883377528        2.7394232415        1.0819184398
HH32       -3.7445924654        2.7264384069        0.2980544502
HH33       -2.3494126657        3.6132494028        0.9594341206
C          -2.1521596792        1.4856627242        0.9908834873
O          -0.9408712696        1.5620435015        0.7927014803
N          -2.7960024638        0.3244150875        1.1078193060
H          -3.7935556138        0.3518998024        1.2647472465
CA         -2.1333825586       -0.9859624511        1.1306528777
HA         -1.4387686196       -1.0043606720        1.9716866393
CB         -3.2061795753       -2.0542544523        1.3786678089
HB1        -2.7360937942       -3.0363172100        1.4489224609
HB2        -3.7269779274       -1.8477942381        2.3148980815
HB3        -3.9263636232       -2.0624777625        0.5587731637
C          -1.3202938218       -1.2931929387       -0.1468992224
O          -0.2877269496       -1.9643643633       -0.0762475803
N          -1.7350564534       -0.7557517282       -1.3011491553
H          -2.5974789745       -0.2292882683       -1.2932182289
CA         -1.0239547003       -0.8937466099       -2.5769800312
HA         -0.8178275423       -1.9523396718       -2.7457636774
CB         -1.9585432127       -0.4073827490       -3.6920315332
HB1        -2.1857051227        0.6515171049       -3.5576655269
HB2        -1.4766762663       -0.5470373984       -4.6607934241
HB3        -2.8862191123       -0.9814703262       -3.6764087167
C           0.3313748113       -0.1488648741       -2.6111763452
O           1.2305562096       -0.5430565546       -3.3599655439
N           0.4965452157        0.8980677606       -1.7909704343
H          -0.2868992034        1.1733654351       -1.2127288513
CA          1.7492049238        1.6435062383       -1.6250789380
HA          2.3713649393        1.5080510332       -2.5114428348
CB          1.4054084762        3.1354100979       -1.5270232615
HB1         0.7915234232        3.3247690103       -0.6451581321
HB2         0.8616159135        3.4499098989       -2.4189600764
HB3         2.3243411748        3.7183803430       -1.4516302474
C           2.5732333084        1.1629098650       -0.4104623221
O           3.8066723745        1.1492679569       -0.4657317709
N           1.9081221366        0.7423177058        0.6733317875
H           0.9000075055        0.8460321018        0.6800333038
CA          2.5491979689        0.2608617229        1.9016868568
HA          3.3770006356        0.9292931941        2.1455818358
CB          1.5209413650        0.3546164006        3.0361746315
HB1         1.9889637478        0.0681968444        3.9789570206
HB2         0.6824780310       -0.3140290290        2.8388989418
HB3         1.1540383084        1.3784937076        3.1226113913
C           3.1326307661       -1.1670875911        1.7848735729
O           4.1006699826       -1.4958270074        2.4795963553
N           2.5703233487       -2.0130316083        0.9091726491
H           1.7484936087       -1.6912803296        0.4107870984
CH3         3.0172054030       -3.3831814574        0.6587278355
HH31        4.0397341635       -3.3804852573        0.2756796571
HH32        2.3655280259       -3.8585425436       -0.0769626048
HH33        2.9865809687       -3.9633655180        1.5832817053
          52
Energy of minimum      2=    -40.75329850     first found at step      716 after               439498 function calls
HH31       -2.0105768767        4.2586907541        0.7059485917
CH3        -1.6064413377        3.7800018294       -0.1851592461
HH32       -0.6165878679        4.1818969482       -0.3984203195
HH33       -2.2674148094        3.9677811197       -1.0303841283
C          -1.5070110586        2.2923720709        0.0513833041
O          -0.4194412392        1.7244670330       -0.0253239180
N          -2.6441041437        1.6474852544        0.3105533287
H          -3.4946924835        2.1914371050        0.3440935384
CA         -2.7301040865        0.2243268087        0.6675192796
HA         -2.1158122089        0.0598085092        1.5544259159
CB         -4.1879275750       -0.0775478331        1.0385633473
HB1        -4.5081363164        0.5760561597        1.8513532592
HB2        -4.8350407871        0.0770917911        0.1735752678
HB3        -4.2762761744       -1.1138322068        1.3679710612
C          -2.2169517361       -0.7435797070       -0.4256561709
O          -1.8646610506       -1.8868182011       -0.1223749087
N          -2.1290800712       -0.2899540055       -1.6826466937
H          -2.4718133426        0.6415140836       -1.8704223304
CA         -1.5454489791       -1.0419770188       -2.7988297227
HA         -1.9098930395       -2.0698651171       -2.7529941187
CB         -2.0602283532       -0.4177657120       -4.1026208211
HB1        -1.7069109143        0.6108351945       -4.1920258454
HB2        -1.6956150425       -0.9936241970       -4.9544128535
HB3        -3.1511754144       -0.4282628004       -4.1146023438
C           0.0020588296       -1.1046307820       -2.7716417131
O           0.5899690321       -1.9522171105       -3.4510593748
N           0.6623447508       -0.2314259460       -1.9966300680
H           0.1125313425        0.4484612111       -1.4859762711
CA          2.1248531890       -0.1376279980       -1.8780715963
HA          2.5913230577       -0.9147332428       -2.4854722613
CB          2.5516446018        1.2193177259       -2.4531933785
HB1         2.2188627305        1.3049219971       -3.4886348319
HB2         2.1157773840        2.0295954464       -1.8663501306
HB3         3.6388433843        1.3042456078       -2.4253226236
C           2.6503040554       -0.3300151710       -0.4364048689
O           3.7833662311       -0.7858784054       -0.2503021314
N           1.8449805468       -0.0092119780        0.5827269454
H           0.9505654371        0.4130994191        0.3682831684
CA          2.1798935647       -0.1849259737        1.9983245199
HA          3.1748843131        0.2316823109        2.1678663045
CB          1.1839363916        0.6313111341        2.8337832952
HB1         0.1738870552        0.2425268990        2.6961864744
HB2         1.4479783913        0.5688114225        3.8903106956
HB3         1.2114516772        1.6779706276        2.5268000332
C           2.2155273203       -1.6690075545        2.4352104954
O           1.5645747701       -2.5326448409        1.8339187111
N           2.9616296314       -1.9618546498        3.5094548490
H           3.4562185231       -1.2006059609        3.9558935372
CH3         3.1119767385       -3.2996910692        4.0844932234
HH31        3.7761563072       -3.2635511009        4.9502898132
HH32        2.1400652676       -3.6832080814        4.4021114488
HH33        3.5357403848       -3.9812517991        3.3438922618
          52
Energy of minimum      3=    -40.67918375     first found at step      476 after               294701 function calls
HH31       -3.8808236614       -0.1715594606       -0.4437266381
CH3        -3.6471085329       -0.8844668469        0.3462074979
HH32       -4.1928228221       -0.6186463950        1.2506967139
HH33       -3.9331758437       -1.8869605554        0.0303716893
C          -2.1647535131       -0.8536978527        0.6325011422
O          -1.4274252844       -0.1055884652       -0.0064488498
N          -1.7181386389       -1.6886589448        1.5709283365
H          -2.3956308979       -2.2762527808        2.0356158264
CA         -0.3336458661       -1.7254563640        2.0637838269
HA         -0.0850466856       -0.7357878925        2.4482678322
CB         -0.2808508592       -2.7139476017        3.2359290684
HB1        -0.5256061222       -3.7195699478        2.8900672384
HB2        -0.9906254897       -2.4138571244        4.0082214873
HB3         0.7216654889       -2.7199950130        3.6660576046
C           0.7231537622       -2.0755823056        0.9885300264
O           1.9068993048       -1.7679513688        1.1568318528
N           0.3076478160       -2.6861508944       -0.1284496176
H          -0.6661501995       -2.9484499055       -0.1842561924
CA          1.1616330997       -2.9823511740       -1.2833219870
HA          2.1321634038       -3.3242402761       -0.9192022869
CB          0.5164254923       -4.1414416135       -2.0549740790
HB1         0.3839589586       -4.9997595983       -1.3945390229
HB2        -0.4536342160       -3.8356767949       -2.4503282777
HB3         1.1612594713       -4.4350876772       -2.8844495641
C           1.4252136176       -1.7626318247       -2.2011475577
O           2.3177441342       -1.8238922364       -3.0529056244
N           0.6683859934       -0.6660882797       -2.0435319708
H          -0.0563003540       -0.6957401410       -1.3366574987
CA          0.7277124646        0.5304613308       -2.8967490486
HA          1.5845991990        0.4564772229       -3.5680980295
CB         -0.5410165961        0.5430491111       -3.7603083971
HB1        -0.6044292881       -0.3781285349       -4.3413606797
HB2        -0.5099099433        1.3897549634       -4.4474061601
HB3        -1.4249247916        0.6309484847       -3.1263387497
C           0.8913975139        1.8620454249       -2.1263802451
O           1.3741359927        2.8428265300       -2.7018924301
N           0.5149491787        1.9108010321       -0.8431742706
H           0.0866515786        1.0849985890       -0.4427134581
CA          0.5811408854        3.0951275968        0.0204134048
HA          1.3022049651        3.8032188651       -0.3923527322
CB         -0.8002926144        3.7666088696        0.0198944910
HB1        -1.5456432444        3.0862474506        0.4352046745
HB2        -0.7725368088        4.6757059766        0.6219658789
HB3        -1.0844356454        4.0306458646       -0.9997399739
C           1.0464673419        2.7570256871        1.4552316084
O           0.9533593611        1.6092718931        1.9049673786
N           1.5361182036        3.7688420924        2.1851912010
H           1.5724701766        4.6823569809        1.7519550376
CH3         2.0169345833        3.6504553101        3.5629397276
HH31        2.3660157149        4.6201714639        3.9232493652
HH32        1.2114006882        3.3024381183        4.2129963145
HH33        2.8432195282        2.9381390121        3.6124341168
          52
Energy of minimum      4=    -40.64488431     first found at step      862 after               525006 function calls
HH31       -2.7569312025        3.8127679772       -2.0890646406
CH3        -2.0328253159        3.1058637663       -2.4922924678
HH32       -2.4127216457        2.6885889236       -3.4240673115
HH33       -1.0888849482        3.6168468783       -2.6787401922
C          -1.8175346326        1.9912631396       -1.4959148977
O          -0.6960214687        1.7767681932       -1.0387003374
N          -2.8856004652        1.2599596037       -1.1760617625
H          -3.7680778026        1.5037958704       -1.6031561473
CA         -2.8853859720        0.1940804231       -0.1652366410
HA         -2.5572929808        0.6230817429        0.7831688281
CB         -4.3302632165       -0.2915842375        0.0083597654
HB1        -4.6958068184       -0.7256460414       -0.9238021206
HB2        -4.3710266806       -1.0484939748        0.7930534198
HB3        -4.9715819450        0.5435092193        0.2942416205
C          -1.9338182299       -0.9800064355       -0.4913677605
O          -1.4350500777       -1.6433364894        0.4213776854
N          -1.6250695904       -1.2056382451       -1.7748311411
H          -2.0855180323       -0.6419567511       -2.4757005001
CA         -0.6600474231       -2.2134178472       -2.2307069883
HA         -0.8906581620       -3.1600545415       -1.7385156139
CB         -0.8589537411       -2.4033335088       -3.7401589603
HB1        -0.1964841945       -3.1912465877       -4.1013775668
HB2        -0.6299451337       -1.4766129892       -4.2689723005
HB3        -1.8907484278       -2.6922449403       -3.9459382041
C           0.8109796672       -1.8677011708       -1.8922608344
O           1.6665488526       -2.7580741062       -1.8919235605
N           1.1061772897       -0.5966672635       -1.5855181819
H           0.3573209954        0.0842324160       -1.6290422581
CA          2.4314982854       -0.0905834130       -1.2045044942
HA          3.1687660299       -0.8833994843       -1.3390606627
CB          2.7950303904        1.0437706187       -2.1731665540
HB1         2.0999611238        1.8759684677       -2.0520660391
HB2         2.7491892399        0.6825658817       -3.2015274770
HB3         3.8081165035        1.3932801594       -1.9703616747
C           2.5289184083        0.3442803176        0.2794819502
O           3.5851220637        0.8088553785        0.7222624415
N           1.4463595091        0.2041363568        1.0545183712
H           0.6217559495       -0.2052302568        0.6431699139
CA          1.3796711383        0.5743494176        2.4707356213
HA          1.8726013306        1.5407522817        2.5950664896
CB         -0.0954040132        0.7562058130        2.8544704797
HB1        -0.6261945358       -0.1923377629        2.7610280649
HB2        -0.1690968445        1.1029719690        3.8860735212
HB3        -0.5599892965        1.4971238750        2.2020093723
C           2.1010058880       -0.4353925974        3.3945650479
O           2.2711267166       -1.6124362126        3.0521014918
N           2.5061946661        0.0229354303        4.5870721276
H           2.3219815125        0.9944370286        4.8007694377
CH3         3.1926356683       -0.7778641041        5.6022757292
HH31        3.4149013916       -0.1639724676        6.4773652700
HH32        2.5619198590       -1.6145166417        5.9101660028
HH33        4.1291503174       -1.1706430789        5.2007046390
          52
Energy of minimum      5=    -39.79992724     first found at step      275 after               184723 function calls
HH31       -4.1984640041       -1.8620939757       -2.2205351344
CH3        -4.2168970782       -0.8982409701       -1.7136052116
HH32       -3.5838246937       -0.1940589848       -2.2509344634
HH33       -5.2379511320       -0.5200779420       -1.6849938559
C          -3.6965731902       -1.0660341147       -0.3035922451
O          -4.4209723290       -0.8047210728        0.6568491612
N          -2.4452623109       -1.5080230086       -0.1861177581
H          -1.9308539186       -1.6884374088       -1.0360682210
CA         -1.7459815289       -1.7587305735        1.0796909715
HA         -2.2081952894       -1.1635646977        1.8695975632
CB         -1.9109194126       -3.2437965164        1.4372730073
HB1        -1.4393591588       -3.4512379364        2.3987547831
HB2        -2.9707886438       -3.4926138134        1.5077489412
HB3        -1.4467177310       -3.8666929151        0.6709116152
C          -0.2580823287       -1.3524520129        1.0108586589
O           0.2980181070       -1.1730192687       -0.0774564062
N           0.3891891418       -1.2126705585        2.1748907451
H          -0.1320434822       -1.3902449534        3.0223714046
CA          1.7865194351       -0.7838513848        2.3311126464
HA          1.9203061896       -0.5090251768        3.3788818835
CB          2.7200974580       -1.9829632758        2.0840741037
HB1         3.7549492849       -1.6935769617        2.2737904928
HB2         2.6239527101       -2.3389446464        1.0571900718
HB3         2.4580391280       -2.7959116413        2.7628500280
C           2.1078608550        0.5032065461        1.5321619913
O           1.5422417994        1.5608990088        1.8236332744
N           2.9644791829        0.4301060796        0.5051372948
H           3.3892102858       -0.4640609134        0.3041688272
CA          3.3287605397        1.5661335580       -0.3526339597
HA          3.6930686429        2.3739337479        0.2847899186
CB          4.4835990190        1.1177876722       -1.2578047973
HB1         4.1547741956        0.3102583870       -1.9140971900
HB2         5.3207839116        0.7719737351       -0.6495620068
HB3         4.8184335175        1.9575541603       -1.8684435941
C           2.1512025246        2.1346766175       -1.1830148342
O           2.2024603877        3.2918502284       -1.6106802419
N           1.0838240397        1.3502573642       -1.3829449946
H           1.1212406241        0.4044147680       -1.0190097544
CA         -0.1633529444        1.7495174459       -2.0468271871
HA          0.0087159270        2.6796340244       -2.5905797075
CB         -0.5107683382        0.6724391911       -3.0848088681
HB1        -0.7196634057       -0.2750538474       -2.5871562851
HB2        -1.3889266679        0.9770858693       -3.6554953986
HB3         0.3242288487        0.5397504014       -3.7742265869
C          -1.3283281425        2.0314519281       -1.0628811403
O          -2.4587229473        2.2796052741       -1.4956449212
N          -1.0764920673        1.9904412233        0.2547162113
H          -0.1210780232        1.8170228679        0.5434976204
CH3        -2.0687166511        2.2035262776        1.3082411547
HH31       -2.4576491735        3.2224558984        1.2555404833
HH32       -2.8979816182        1.5031064591        1.1926026838
HH33       -1.6113895441        2.0510098374        2.2877792265
          52
Energy of minimum      6=    -39.55711402     first found at step      240 after               160827 function calls
HH31       -4.6450372860        0.4507247403        2.9730843296
CH3        -3.6002441141        0.7114847272        2.8084722958
HH32       -3.3375700829        1.5711139732        3.4239691251
HH33       -3.4481419090        0.9553806834        1.7577884554
C          -2.7278519691       -0.4659307130        3.1799159615
O          -1.8746285123       -0.3520308391        4.0593670772
N          -2.9342665051       -1.5949539749        2.5014993032
H          -3.6688446426       -1.6004798749        1.8082087265
CA         -2.2012334740       -2.8473921432        2.7327795255
HA         -2.1072585757       -2.9959529793        3.8100040597
CB         -3.0499327344       -3.9973496517        2.1732643497
HB1        -3.1581201313       -3.8922993566        1.0925422428
HB2        -4.0369491946       -3.9914967590        2.6381184432
HB3        -2.5667498648       -4.9508525799        2.3909037160
C          -0.7666434787       -2.8602925607        2.1494214892
O           0.0269459501       -3.7484352938        2.4782183507
N          -0.4272971751       -1.8871593407        1.2956959248
H          -1.1279518946       -1.1899348191        1.0887180869
CA          0.8864863685       -1.7105689694        0.6678417754
HA          1.6519887631       -2.1709084697        1.2956689945
CB          0.8751460833       -2.4297998775       -0.6902630388
HB1         1.8554718137       -2.3523823159       -1.1625399602
HB2         0.1263668097       -1.9815965517       -1.3457031079
HB3         0.6399598853       -3.4856989210       -0.5483959393
C           1.2509392055       -0.2182429615        0.5132793391
O           0.3794774023        0.6567664239        0.5512031547
N           2.5367189148        0.0767272459        0.2877467297
H           3.2009215855       -0.6849941853        0.2567597355
CA          3.0662368716        1.4438287014        0.1730418195
HA          2.7822478192        1.9956456960        1.0710620986
CB          4.5974088854        1.3515825381        0.1383040328
HB1         4.9208209687        0.8058430243       -0.7496680889
HB2         5.0252874068        2.3548668991        0.1140586076
HB3         4.9598553604        0.8386959208        1.0304835747
C           2.5226959291        2.2388464069       -1.0389315213
O           2.5619736058        3.4729131488       -1.0375834441
N           1.9824132018        1.5512877674       -2.0534984313
H           2.0203138522        0.5434422143       -2.0096223583
CA          1.3266475370        2.1559791709       -3.2186963876
HA          1.9149825072        3.0184472074       -3.5370230754
CB          1.3536954922        1.1254512396       -4.3558148883
HB1         2.3816153050        0.8195126646       -4.5562489046
HB2         0.7618550663        0.2501448684       -4.0832281684
HB3         0.9377687903        1.5669919865       -5.2624590853
C          -0.1105682525        2.6673720719       -2.9418427967
O          -0.6906248057        3.3572812982       -3.7878761130
N          -0.6960439011        2.3449336084       -1.7775084603
H          -0.1636376847        1.7814364288       -1.1244321896
CH3        -2.0431282882        2.7483394157       -1.3733477112
HH31       -2.7808333741        2.3452838936       -2.0702809243
HH32       -2.1224669375        3.8374028796       -1.3642946779
HH33       -2.2602165927        2.3710262932       -0.3721620518
          52
Energy of minimum      7=    -39.54147777     first found at step       19 after                11961 function calls
HH31       -3.6645192076        2.3824173888        2.0221218814
CH3        -2.7018576663        2.2753316173        1.5240459917
HH32       -2.8495651318        2.2615095524        0.4449369543
HH33       -2.0563279806        3.1109024512        1.7913636897
C          -2.0572888863        0.9775322518        1.9540171434
O          -0.9561914373        0.9860572450        2.5057731113
N          -2.7395033049       -0.1393707351        1.6994637061
H          -3.6321557336       -0.0545917080        1.2365321985
CA         -2.2548869990       -1.4865141801        2.0166912536
HA         -2.0320982936       -1.5230617967        3.0849987739
CB         -3.3745836825       -2.4972177717        1.7354089672
HB1        -3.6315387976       -2.4860882824        0.6748530855
HB2        -3.0430614829       -3.4996768329        2.0100892569
HB3        -4.2584301661       -2.2459430000        2.3236608579
C          -0.9601219152       -1.8344464965        1.2504461853
O          -0.7776360950       -1.4270883413        0.0988142299
N          -0.0510471223       -2.5764758287        1.8974446754
H          -0.2859987254       -2.9010579984        2.8258415350
CA          1.2900734662       -2.9134749364        1.3907452391
HA          1.8531565922       -3.2964051214        2.2436263449
CB          1.1743017839       -4.0716506331        0.3853102708
HB1         2.1692183349       -4.4254415974        0.1122638606
HB2         0.6560344458       -3.7379931857       -0.5144607846
HB3         0.6208308777       -4.8979024321        0.8333615723
C           2.1056022004       -1.6928438434        0.8830442756
O           2.9146980802       -1.8099251686       -0.0430991886
N           1.8665752662       -0.5118304907        1.4734147014
H           1.2005179440       -0.5074474722        2.2334773804
CA          2.4058073871        0.7957840228        1.0741340123
HA          1.8583124824        1.5328749646        1.6639347235
CB          3.8756468034        0.9009828731        1.5151307142
HB1         4.2310495244        1.9227363304        1.3767039174
HB2         4.4953824792        0.2267856921        0.9231914222
HB3         3.9665421191        0.6406868818        2.5704895716
C           2.1404448929        1.2038598794       -0.4000209579
O           2.8620922770        2.0386038986       -0.9581520450
N           1.1108371502        0.6361931164       -1.0411835822
H           0.5463464135       -0.0392113530       -0.5405364221
CA          0.7110113915        0.9606217878       -2.4136119001
HA          1.6127042430        1.0255125762       -3.0259753485
CB         -0.1370524635       -0.1936413181       -2.9645563346
HB1         0.4130235182       -1.1321805593       -2.8815564863
HB2        -1.0701961728       -0.2716401312       -2.4049664354
HB3        -0.3686789281       -0.0137169234       -4.0151008281
C          -0.0222658333        2.3185784611       -2.5213359794
O          -0.6237588387        2.8027872422       -1.5542620424
N           0.0059340724        2.9248942848       -3.7162829276
H           0.5083510428        2.4624584373       -4.4626837366
CH3        -0.6376903102        4.2039717399       -4.0207316975
HH31       -0.2338056233        4.9896578466       -3.3787450874
HH32       -0.4596376640        4.4749504359       -5.0632771969
HH33       -1.7145963267        4.1311471603       -3.8547925219
          52
Energy of minimum      8=    -39.44864176     first found at step      970 after               597514 function calls
HH31        0.0765177825        3.8404977140        0.7716811579
CH3        -0.9943081752        3.6510639029        0.8370367614
HH32       -1.3728704999        4.0200020787        1.7894790759
HH33       -1.5061987748        4.1594295636        0.0208798249
C          -1.2513882739        2.1665463777        0.7413004994
O          -0.3138249361        1.3836175641        0.5994599592
N          -2.5235246781        1.7725045385        0.7894138402
H          -3.2327095363        2.4830590522        0.9021281652
CA         -2.9535494025        0.3676926702        0.8005293752
HA         -2.4698647284       -0.1298856970        1.6431509847
CB         -4.4687928747        0.3420276913        1.0399959867
HB1        -4.9878695967        0.8340110354        0.2157332398
HB2        -4.7065443765        0.8536394207        1.9738528259
HB3        -4.8119067541       -0.6912218401        1.1100742953
C          -2.5725512148       -0.4207127734       -0.4744714580
O          -2.4372896062       -1.6465047606       -0.4250081259
N          -2.3511085361        0.2687487755       -1.6013695381
H          -2.5173805171        1.2651083575       -1.5841707525
CA         -1.8684274429       -0.3267708474       -2.8524143381
HA         -2.4436917877       -1.2327134645       -3.0521409346
CB         -2.1458734708        0.6693455288       -3.9857176626
HB1        -1.5817465601        1.5895520923       -3.8248766196
HB2        -1.8469219358        0.2317886560       -4.9393177202
HB3        -3.2115076804        0.9001915120       -4.0250327735
C          -0.3750771426       -0.7295884660       -2.8056455637
O           0.0431194538       -1.6258848704       -3.5450697461
N           0.4221516291       -0.0956483328       -1.9340751257
H           0.0121070596        0.6368953068       -1.3692477991
CA          1.8433356401       -0.3951507316       -1.7169590309
HA          2.2282973151       -0.9637861037       -2.5651232605
CB          2.6035830585        0.9366788387       -1.6711584220
HB1         2.2583103113        1.5398525485       -0.8299230354
HB2         3.6715069993        0.7452870834       -1.5569878997
HB3         2.4425921377        1.4873427285       -2.5991296372
C           2.0991830852       -1.2410107818       -0.4494364428
O           3.0439246643       -2.0351122127       -0.4207393797
N           1.2561514038       -1.0891064905        0.5825276647
H           0.5386856673       -0.3796676827        0.4885286611
CA          1.3051401394       -1.8075036249        1.8643343162
HA          0.5977576293       -1.2966313507        2.5197742259
CB          0.7586874674       -3.2318846657        1.6685145708
HB1         0.6449123831       -3.7206490142        2.6368127329
HB2        -0.2164687293       -3.1914424508        1.1812512015
HB3         1.4441114178       -3.8159153560        1.0534254267
C           2.6641022545       -1.7240278259        2.6102204463
O           3.0627875582       -2.6593290067        3.3148025754
N           3.3852142378       -0.6030182784        2.4567762551
H           2.9919379298        0.1210158426        1.8711660712
CH3         4.6907451093       -0.3515471975        3.0688319280
HH31        5.4113279642       -1.1014630167        2.7358284525
HH32        4.6105538400       -0.3971913082        4.1569485213
HH33        5.0546530925        0.6374692711        2.7835562246
          52
Energy of minimum      9=    -39.44390506     first found at step      602 after               372621 function calls
HH31       -4.7219778583       -0.1943724070        1.7370727843
CH3        -3.7768996800        0.3467769691        1.7160994439
HH32       -3.9437964671        1.3572511463        1.3450886990
HH33       -3.3624961285        0.3909371192        2.7224076940
C          -2.8094710316       -0.3758576435        0.8059845133
O          -2.3692469497        0.1886381188       -0.1952831672
N          -2.4939338226       -1.6249552893        1.1554191134
H          -2.9141553265       -1.9857706303        1.9994924906
CA         -1.5845193698       -2.5200850866        0.4245263032
HA         -1.3637372124       -3.3657161535        1.0779535267
CB         -2.3501763468       -3.0879378012       -0.7869391225
HB1        -1.7807970891       -3.8948255420       -1.2499809617
HB2        -3.3083984342       -3.4948418992       -0.4599233696
HB3        -2.5308351763       -2.3032849986       -1.5233759321
C          -0.2116784502       -1.8759832426        0.0934291615
O           0.2820327681       -1.0175969232        0.8325376009
N           0.4260948315       -2.2830487947       -1.0111451032
H          -0.0118940144       -2.9965586384       -1.5765788392
CA          1.7501167344       -1.8045917800       -1.4296540732
HA          2.4521731775       -1.9870328221       -0.6138449424
CB          2.1931265549       -2.6457660971       -2.6338721750
HB1         1.5133345948       -2.4880402950       -3.4729032125
HB2         3.2009642136       -2.3550501428       -2.9339015698
HB3         2.1996326970       -3.7036843076       -2.3670226177
C           1.8071281980       -0.2914183760       -1.7494836737
O           2.8885064360        0.3028904956       -1.7135022384
N           0.6611473371        0.3485720998       -2.0202647491