          52
Energy of minimum      1=    -41.72299240     first found at step     1427 after               956595 function calls
HH31       -1.2552415906        2.9331145765       -3.0523826793
CH3        -0.8367366548        3.4716437556       -2.2028888433
HH32       -0.0881114915        4.1810956630       -2.5532605000
HH33       -1.6298242397        4.0071330478       -1.6825083530
C          -0.1883577554        2.4925604012       -1.2539962489
O          -0.2034303983        1.2879713271       -1.5011150884
N           0.3607672025        2.9995664054       -0.1503159160
H           0.3249031494        4.0010506304       -0.0228906754
CA          1.1069754835        2.2083278006        0.8364922977
HA          1.9546391592        1.7422531310        0.3321060364
CB          1.6573104881        3.1713041097        1.8964265671
HB1         0.8365016201        3.6638950757        2.4204369243
HB2         2.2583622183        2.6167541887        2.6186279360
HB3         2.2874411092        3.9253170400        1.4223129021
C           0.2755022045        1.0777633269        1.4831138099
O           0.8190808951        0.0197766985        1.8099831728
N          -1.0448688179        1.2613675543        1.6098965205
H          -1.4247352408        2.1571633697        1.3374068148
CA         -1.9712817403        0.2499191691        2.1306497905
HA         -1.5829952427       -0.1180642772        3.0821840126
CB         -3.3162233330        0.9370975315        2.3994682146
HB1        -3.7378112251        1.3169874036        1.4673346449
HB2        -3.1782647700        1.7639028622        3.0978689393
HB3        -4.0123834401        0.2207483402        2.8381067034
C          -2.1382083386       -0.9722038036        1.1971150056
O          -2.4568181222       -2.0675431921        1.6696813544
N          -1.8976966606       -0.8044694985       -0.1105953119
H          -1.6520327950        0.1235639965       -0.4305021255
CA         -1.9079334534       -1.8790467676       -1.1093614213
HA         -2.5123958644       -2.7098470612       -0.7413013305
CB         -2.5847264028       -1.3431629884       -2.3775758796
HB1        -2.0083880358       -0.5148740355       -2.7925087141
HB2        -3.5927954430       -0.9986491368       -2.1424615012
HB3        -2.6494585299       -2.1383338158       -3.1215441748
C          -0.4970883118       -2.4349100358       -1.4023139258
O          -0.3422028937       -3.6369809267       -1.6382139603
N           0.5350376793       -1.5822765701       -1.3621589688
H           0.3312614512       -0.5979172913       -1.2332840401
CA          1.9290740508       -1.9588424701       -1.6200251445
HA          1.9552773081       -2.6149448809       -2.4920260972
CB          2.7035685708       -0.6819474994       -1.9705412634
HB1         2.2348319212       -0.1834934979       -2.8203903469
HB2         2.7161463336       -0.0042708319       -1.1163625351
HB3         3.7303092354       -0.9377661066       -2.2356453867
C           2.5974477978       -2.7221311011       -0.4522300479
O           3.5089746808       -3.5246155120       -0.6823317206
N           2.1504222244       -2.4967806359        0.7919758486
H           1.4355188848       -1.7880820077        0.9101945168
CH3         2.6539387014       -3.1541525129        1.9978241547
HH31        2.4836359643       -4.2310156550        1.9373179669
HH32        3.7247505676       -2.9702204667        2.1068296863
HH33        2.1383318898       -2.7637348262        2.8773783804
          52
Energy of minimum      2=    -40.75329850     first found at step     1273 after               851460 function calls
HH31       -0.2326235284        3.8121574527       -2.8443872642
CH3        -0.9989328395        3.1432454149       -2.4546841386
HH32       -1.8651465608        3.7252389491       -2.1424191680
HH33       -1.2934670365        2.4352879250       -3.2285417893
C          -0.4463079693        2.3923011229       -1.2674312352
O          -0.3977954930        1.1640062172       -1.2795305797
N          -0.0545009242        3.1223308536       -0.2236052789
H          -0.1398444580        4.1263916361       -0.2949320579
CA          0.6016544074        2.5768969241        0.9731247238
HA          1.5035077941        2.0510589943        0.6550380876
CB          1.0283471304        3.7594871770        1.8525932811
HB1         0.1500107460        4.3119205061        2.1905517293
HB2         1.5739542087        3.3921324344        2.7229745927
HB3         1.6804230323        4.4272836952        1.2876117902
C          -0.2561136876        1.5650220563        1.7703349341
O           0.2873616206        0.7574476821        2.5289789444
N          -1.5813973433        1.5680066388        1.5776248204
H          -1.9663094593        2.2811493825        0.9746085069
CA         -2.5082610668        0.5914898883        2.1601770128
HA         -2.2414961449        0.4420123606        3.2080163472
CB         -3.9164669915        1.1992981257        2.1150769800
HB1        -4.2259314567        1.3544220941        1.0801786274
HB2        -4.6234052830        0.5243199756        2.5995852618
HB3        -3.9265274039        2.1540571997        2.6430477474
C          -2.4672746366       -0.7976338473        1.4759983108
O          -2.9470400140       -1.7771593407        2.0556571361
N          -1.8989920286       -0.8957705184        0.2649940359
H          -1.5477219898       -0.0446863667       -0.1564009964
CA         -1.8026698245       -2.1283059188       -0.5308474522
HA         -2.2274244356       -2.9608828176        0.0320215326
CB         -2.6573139952       -1.9360815535       -1.7905501220
HB1        -2.6478342229       -2.8514965421       -2.3837754235
HB2        -2.2597847968       -1.1172376992       -2.3925305969
HB3        -3.6869664864       -1.7099482226       -1.5096758896
C          -0.3532017928       -2.5316992893       -0.8883815952
O          -0.0722869037       -3.7212261170       -1.0683487020
N           0.5720024809       -1.5692570967       -0.9766559914
H           0.2708091741       -0.6083435303       -0.8754672619
CA          1.9923027076       -1.7998101654       -1.2533348701
HA          2.0683393147       -2.4661090688       -2.1150643374
CB          2.6309542049       -0.4593368918       -1.6424630338
HB1         2.1049586394       -0.0313058942       -2.4972203350
HB2         2.5800827048        0.2363741209       -0.8036042810
HB3         3.6761586768       -0.6120782175       -1.9146619245
C           2.7397362325       -2.4723055321       -0.0770142023
O           2.3390083631       -2.3600910611        1.0883121359
N           3.8523188017       -3.1542811768       -0.3827890448
H           4.1239020456       -3.1920440867       -1.3565660975
CH3         4.7030853151       -3.8459890916        0.5871677405
HH31        5.5409749514       -4.3251751313        0.0769069962
HH32        4.1275995642       -4.6104873358        1.1134272074
HH33        5.0955466571       -3.1345963139        1.3168751868
          52
Energy of minimum      3=    -40.64488431     first found at step     1266 after               845677 function calls
HH31       -3.6501404607        3.2755731262       -0.8491647850
CH3        -2.8088369985        3.1265564284       -1.5249209455
HH32       -2.4758725642        4.0902814134       -1.9083324949
HH33       -3.1146377013        2.4897974490       -2.3543266601
C          -1.6740612474        2.4707321949       -0.7741669979
O          -1.2479538948        1.3732025299       -1.1301251048
N          -1.1983217869        3.1273819514        0.2843029184
H          -1.6109891688        4.0220509656        0.5076971290
CA         -0.0454325851        2.6869649494        1.0810119339
HA          0.8132309207        2.5900439681        0.4143310499
CB          0.2693393707        3.7868823348        2.1031550393
HB1         1.1561974414        3.5121906874        2.6761693521
HB2        -0.5706472032        3.9157320648        2.7878285806
HB3         0.4636351676        4.7288355470        1.5880118340
C          -0.2462169744        1.3187953387        1.7724742995
O           0.7263840835        0.5989343566        2.0127408824
N          -1.4975716733        0.9220865984        2.0375163403
H          -2.2483347490        1.5681047477        1.8375593419
CA         -1.8512784018       -0.3890899077        2.5946680291
HA         -1.2164670710       -0.5784096237        3.4622666214
CB         -3.3054498073       -0.3156181036        3.0784700355
HB1        -3.5820803635       -1.2576944825        3.5539902062
HB2        -3.4148945039        0.4892366822        3.8069244386
HB3        -3.9734933005       -0.1339890910        2.2348894485
C          -1.6411458132       -1.5641950952        1.6082813992
O          -1.5554416030       -2.7186783969        2.0379158992
N          -1.5365690471       -1.2810502312        0.3022750560
H          -1.6400842938       -0.3134559026        0.0205832662
CA         -1.3001715321       -2.2550994758       -0.7715556175
HA         -1.3558869328       -3.2631201363       -0.3580141336
CB         -2.4396775751       -2.1132263094       -1.7906821037
HB1        -3.4014214152       -2.2435303227       -1.2925193652
HB2        -2.4050823817       -1.1266673860       -2.2552728310
HB3        -2.3409812230       -2.8752572497       -2.5647609637
C           0.0985797323       -2.1323303385       -1.4267162731
O           0.4156215466       -2.8800515961       -2.3582999348
N           0.9394683380       -1.2017343486       -0.9585784844
H           0.6338017084       -0.6390486413       -0.1796610862
CA          2.2888868306       -0.9595420038       -1.4758684787
HA          2.2472152046       -0.9885827582       -2.5666447839
CB          2.7164138703        0.4572093483       -1.0681833956
HB1         2.7879442187        0.5286131564        0.0180899957
HB2         1.9880942588        1.1837247917       -1.4318184044
HB3         3.6894915923        0.6893585173       -1.5030497478
C           3.3112309376       -2.0287488584       -1.0231292366
O           3.1342443997       -2.6925368883        0.0062954915
N           4.4029851270       -2.1787351918       -1.7859480604
H           4.4831293120       -1.5924286733       -2.6064588503
CH3         5.4872057999       -3.1253663669       -1.5186009706
HH31        5.9442313012       -2.9091399830       -0.5506339500
HH32        6.2520562726       -3.0486551796       -2.2939498271
HH33        5.0997548377       -4.1463066057       -1.5060651017
          52
Energy of minimum      4=    -40.64488431     first found at step     1270 after               849067 function calls
HH31       -3.1677207770        2.6059785249       -2.1488026164
CH3        -2.8669924981        3.1846772554       -1.2761284529
HH32       -3.7064385194        3.2698002650       -0.5871231330
HH33       -2.5516011880        4.1793237771       -1.5889258181
C          -1.7174887955        2.4937018064       -0.5814003957
O          -1.2762792996        1.4324629877       -1.0195229423
N          -1.2457735474        3.0780854274        0.5203509421
H          -1.6711463033        3.9470404474        0.8112240781
CA         -0.0812798439        2.5988043841        1.2767304728
HA          0.7747565142        2.5652385244        0.6005387912
CB          0.2222777306        3.6252649716        2.3757789740
HB1         1.1168100797        3.3234342006        2.9226136941
HB2        -0.6154792638        3.6896431561        3.0721813120
HB3         0.3985673555        4.6056761176        1.9306776548
C          -0.2562657559        1.1802813850        1.8662175999
O           0.7290077119        0.4604887440        2.0479190633
N          -1.4995791397        0.7449040496        2.1073235717
H          -2.2616373947        1.3916805303        1.9592869194
CA         -1.8291772623       -0.6093544614        2.5678224650
HA         -1.1862203474       -0.8518684552        3.4159663602
CB         -3.2813731111       -0.5953152259        3.0628043392
HB1        -3.9572907677       -0.3627796372        2.2382062972
HB2        -3.5402234463       -1.5742583841        3.4687829141
HB3        -3.3990934990        0.1517279682        3.8492415950
C          -1.6065022574       -1.7049322682        1.4963227890
O          -1.4999952474       -2.8864273340        1.8390885475
N          -1.5143101274       -1.3245534976        0.2143038791
H          -1.6347815694       -0.3406162356        0.0053576057
CA         -1.2690748261       -2.2127735091       -0.9296772685
HA         -1.3063780879       -3.2493254812       -0.5914541218
CB         -2.4168208726       -2.0145562772       -1.9299820990
HB1        -3.3733584446       -2.1968011283       -1.4381293254
HB2        -2.3107986878       -2.7157057712       -2.7587033362
HB3        -2.4006051692       -0.9959802717       -2.3205968052
C           0.1235770001       -2.0193888849       -1.5807810196
O           0.4467354292       -2.6911179564       -2.5665798788
N           0.9524952778       -1.1123814699       -1.0492854063
H           0.6427062440       -0.6137125600       -0.2294563494
CA          2.2947712757       -0.8108844405       -1.5538357322
HA          2.2469662612       -0.7600460381       -2.6435618336
CB          2.7023512225        0.5786614678       -1.0447074203
HB1         2.7793155227        0.5708803277        0.0435117273
HB2         1.9604738046        1.3181439428       -1.3501384767
HB3         3.6689969838        0.8579740980       -1.4659705917
C           3.3365765824       -1.8938956474       -1.1862870783
O           3.1763143650       -2.6345955980       -0.2078527898
N           4.4259272376       -1.9695129115       -1.9634053735
H           4.4918469438       -1.3230524175       -2.7387503306
CH3         5.5265450415       -2.9156203783       -1.7719879683
HH31        5.9859475830       -2.7640282969       -0.7929295099
HH32        6.2853871760       -2.7695513744       -2.5432655862
HH33        5.1553327072       -3.9408384477       -1.8330099331
          52
Energy of minimum      5=    -40.60550197     first found at step      775 after               534988 function calls
HH31        2.2609893510        2.1924181515        3.7430446150
CH3         2.2709153581        1.4366532155        2.9585683628
HH32        2.7251006787        1.8516505715        2.0602066348
HH33        2.8456679095        0.5733506052        3.2919882945
C           0.8521085481        1.0148842153        2.6530655675
O           0.5218444617       -0.1660514688        2.7617774588
N           0.0148939555        1.9767986984        2.2635270203
H           0.3705448320        2.9195646539        2.2072981709
CA         -1.3957114475        1.7550485744        1.9273882455
HA         -1.8875515500        1.3240185715        2.8017176938
CB         -2.0532356161        3.1106416040        1.6371954080
HB1        -1.5810871230        3.5781741439        0.7713854608
HB2        -3.1147495570        2.9681359817        1.4292227456
HB3        -1.9500587748        3.7667489669        2.5027979837
C          -1.5711628090        0.7713232345        0.7510217894
O          -0.7736209807        0.7682035793       -0.1920633544
N          -2.6035888949       -0.0796005451        0.8146195429
H          -3.2293263363        0.0018577665        1.6047656961
CA         -2.8847019093       -1.1555908876       -0.1511202007
HA         -3.6220257670       -1.8074398299        0.3205899671
CB         -3.5614742334       -0.5501685456       -1.3924669051
HB1        -4.4220450902        0.0484597060       -1.0910554051
HB2        -3.9050794326       -1.3471905182       -2.0529862494
HB3        -2.8561013407        0.0816394641       -1.9337754569
C          -1.6713220796       -2.0742824424       -0.4620196273
O          -1.5472953116       -2.6066069407       -1.5695431703
N          -0.7543945887       -2.2279345313        0.5059045232
H          -0.9422912296       -1.7766842057        1.3908054396
CA          0.5479432027       -2.8986959130        0.3814073413
HA          1.0906079678       -2.6644179473        1.2988047000
CB          0.3418320779       -4.4230905056        0.3825453015
HB1        -0.1494173856       -4.7374269576       -0.5388049636
HB2         1.3061310355       -4.9267007747        0.4599575118
HB3        -0.2724838165       -4.7141566328        1.2355941134
C           1.4589637644       -2.3664465387       -0.7580910017
O           2.3409567756       -3.0860179036       -1.2398152045
N           1.2575573248       -1.1132717474       -1.1905432795
H           0.4979522647       -0.5939875422       -0.7677429270
CA          1.9732216897       -0.4767423964       -2.3059225212
HA          2.8489518915       -1.0740107821       -2.5646971783
CB          1.0306947788       -0.4744043842       -3.5173217278
HB1         0.1419970280        0.1204895049       -3.3000650345
HB2         0.7296582298       -1.4955619773       -3.7556324813
HB3         1.5430971295       -0.0484176834       -4.3809497721
C           2.4881598620        0.9499355767       -2.0002241649
O           3.5085839775        1.3652627102       -2.5600181374
N           1.8167092066        1.6996810779       -1.1139662087
H           0.9606807073        1.3162869928       -0.7283110918
CH3         2.1811927275        3.0613734074       -0.7216418769
HH31        2.2448492667        3.7015555387       -1.6041068731
HH32        1.4278090326        3.4703660798       -0.0460923365
HH33        3.1491102385        3.0603770092       -0.2162224383
          52
Energy of minimum      6=    -40.46913409     first found at step     1364 after               914757 function calls
HH31        3.6215215134        3.9979868886       -1.5755307171
CH3         3.7551118343        3.1308205010       -0.9300017016
HH32        4.6808443862        3.2350832742       -0.3654008167
HH33        3.7985476111        2.2283526576       -1.5385151945
C           2.5853440127        3.0328666949        0.0232779363
O           2.7727090404        3.0734935092        1.2396441395
N           1.3799173362        2.9045527494       -0.5294789147
H           1.3238346223        2.8792844222       -1.5366183103
CA          0.1346861048        2.7513726746        0.2293489496
HA          0.1192417662        3.5030705488        1.0211120223
CB         -1.0446891001        3.0350211310       -0.7122663613
HB1        -1.0696560253        2.2963691890       -1.5155303713
HB2        -1.9829726293        2.9892261400       -0.1574285766
HB3        -0.9431487196        4.0322043285       -1.1435454888
C           0.0112457691        1.3655972814        0.8990920022
O           0.6094464914        0.3830640603        0.4500869617
N          -0.8221094537        1.2589711171        1.9403047621
H          -1.2989968547        2.0922328239        2.2570599176
CA         -1.0150082588        0.0258867300        2.7178632985
HA         -0.0451181704       -0.2854098850        3.1103654459
CB         -1.9248031433        0.3581586292        3.9076103326
HB1        -2.0436138890       -0.5253520172        4.5365738082
HB2        -1.4798782549        1.1553152830        4.5050960785
HB3        -2.9065322682        0.6765623993        3.5529397078
C          -1.5763462196       -1.1584888668        1.8950693773
O          -1.3403486788       -2.3196908663        2.2404324002
N          -2.2730057238       -0.8790341512        0.7856252359
H          -2.4696884179        0.0915436018        0.5867796737
CA         -2.7700516718       -1.8838451941       -0.1614155472
HA         -3.1655693156       -2.7290818599        0.4048201138
CB         -3.9335790875       -1.2548501686       -0.9395109032
HB1        -4.7025308751       -0.9117131892       -0.2456680495
HB2        -4.3722427670       -1.9968843097       -1.6081494944
HB3        -3.5769487818       -0.4102628578       -1.5314470648
C          -1.6846034887       -2.4431519813       -1.1148656752
O          -1.9057688252       -3.4775549977       -1.7524784263
N          -0.5226895173       -1.7816297406       -1.2164158296
H          -0.4109473512       -0.9424003521       -0.6622286619
CA          0.5932491661       -2.1511763586       -2.0981730421
HA          0.2930406198       -2.9817061945       -2.7389484977
CB          0.8857756510       -0.9498664745       -3.0071352904
HB1        -0.0101528940       -0.6830891743       -3.5696065183
HB2         1.2043891824       -0.0942237126       -2.4095112736
HB3         1.6788636308       -1.2073169425       -3.7104842894
C           1.8592981109       -2.6084987953       -1.3371902365
O           2.6054554413       -3.4574331291       -1.8370381602
N           2.1011765600       -2.0766743502       -0.1302918186
H           1.4751017589       -1.3453568437        0.1890885901
CH3         3.2332589512       -2.4201285554        0.7300116919
HH31        3.1987201216       -1.8272911936        1.6460919884
HH32        3.1969670308       -3.4792476114        0.9933238877
HH33        4.1732536699       -2.2156768616        0.2132569097
          52
Energy of minimum      7=    -40.37812355     first found at step     1185 after               794286 function calls
HH31        3.9941199709        4.1630488312       -2.0456430618
CH3         2.9477526954        3.9585799718       -2.2691235143
HH32        2.8753103648        3.0713675082       -2.8969827313
HH33        2.5130164173        4.8096742362       -2.7917909713
C           2.1888599584        3.7218841222       -0.9826311909
O           2.7734424932        3.7756567938        0.0998821066
N           0.8876681665        3.4614108275       -1.1009719572
H           0.4956918017        3.4316905568       -2.0302986330
CA         -0.0032184300        3.1723555102        0.0270609906
HA          0.1875188704        3.9075225300        0.8115749872
CB         -1.4546314262        3.3531231498       -0.4404610079
HB1        -1.5951943259        4.3618101447       -0.8321836103
HB2        -1.6904442751        2.6276132033       -1.2210395462
HB3        -2.1362666361        3.2068163019        0.3987222196
C           0.2325630983        1.7716199571        0.6347926862
O           0.7126488150        0.8524447218       -0.0368843585
N          -0.1654996499        1.5827273702        1.8988904454
H          -0.5629687928        2.3682291147        2.3959728884
CA          0.0182074897        0.3281707625        2.6429171358
HA          1.0827754135        0.0867000551        2.6494150016
CB         -0.4231531582        0.5708620157        4.0921022493
HB1        -0.2484742747       -0.3287104392        4.6842347522
HB2        -1.4856982477        0.8176057059        4.1256183162
HB3         0.1524998472        1.3909006468        4.5240729632
C          -0.7214981566       -0.8816363705        2.0251169776
O          -0.2986087972       -2.0267987769        2.2070543282
N          -1.7830646782       -0.6394449956        1.2447270290
H          -2.0926503396        0.3178561642        1.1569393946
CA         -2.5382212373       -1.6683180625        0.5210825261
HA         -2.8432342550       -2.4361745324        1.2344676924
CB         -3.8052580179       -1.0094175487       -0.0399478590
HB1        -3.5384196786       -0.2357652018       -0.7619775137
HB2        -4.4209226677       -1.7610490264       -0.5361525061
HB3        -4.3835350330       -0.5639817493        0.7710060959
C          -1.7293103739       -2.3745848986       -0.5941532435
O          -2.0979101427       -3.4749295791       -1.0160444842
N          -0.6192260147       -1.7797907650       -1.0540151144
H          -0.3731153848       -0.8701679575       -0.6826423213
CA          0.2925470283       -2.3701190127       -2.0415929899
HA         -0.2982864091       -2.9445019567       -2.7572852179
CB          0.9638640628       -1.2255552965       -2.8132177565
HB1         1.5686713579       -1.6339232755       -3.6238293699
HB2         0.2050544953       -0.5678409930       -3.2395113791
HB3         1.6081648310       -0.6509841270       -2.1467817657
C           1.3302961008       -3.3473845507       -1.4332349882
O           2.0627882022       -4.0095696540       -2.1770477087
N           1.4067637499       -3.4522793182       -0.0970469122
H           0.7732206869       -2.8856746180        0.4531188010
CH3         2.3314714267       -4.3252590446        0.6263551401
HH31        2.1600772934       -5.3671687933        0.3479634501
HH32        2.1804271582       -4.2185558038        1.7023746848
HH33        3.3633886072       -4.0600838539        0.3870288510
          52
Energy of minimum      8=    -40.30878445     first found at step     1158 after               775861 function calls
HH31        0.7673335447        4.7894593631       -1.8910497872
CH3        -0.3049332499        4.9789089210       -1.8604684804
HH32       -0.7814794910        4.5068440706       -2.7187480533
HH33       -0.4866802134        6.0526547920       -1.8871725769
C          -0.8789065086        4.3964274888       -0.5882354700
O          -1.4454383971        5.1274004074        0.2247264888
N          -0.7290049049        3.0831617144       -0.4213163169
H          -0.2321259445        2.5744064501       -1.1386119287
CA         -1.1909432792        2.3161635203        0.7412022490
HA         -1.2335435069        2.9735612957        1.6118065394
CB         -2.6090573597        1.7986330999        0.4529261381
HB1        -3.2746676865        2.6376450153        0.2449212915
HB2        -2.9917979477        1.2568850279        1.3190552448
HB3        -2.5959667301        1.1301092737       -0.4097223557
C          -0.2322836687        1.1573616868        1.0813427116
O           0.5083127027        0.6740098469        0.2195475616
N          -0.2802022742        0.6616898532        2.3227522275
H          -0.9178985571        1.0876362115        2.9817343910
CA          0.6074355414       -0.3985840128        2.8226848988
HA          1.6399948655       -0.0695420837        2.6913051498
CB          0.3473895026       -0.5582795769        4.3261668654
HB1        -0.6793959806       -0.8858944248        4.4974471461
HB2         0.5136827147        0.3921151135        4.8355752182
HB3         1.0310747344       -1.3009807110        4.7400182975
C           0.4607625259       -1.7481994298        2.0805068630
O           1.4053740946       -2.5418091143        2.0460499640
N          -0.6924691352       -1.9949416984        1.4454154716
H          -1.4412705426       -1.3257222671        1.5533339133
CA         -0.9416797947       -3.1687943099        0.6010371426
HA         -0.5472647880       -4.0513496707        1.1080300511
CB         -2.4615025426       -3.3381476560        0.4745423306
HB1        -2.6841006838       -4.2407574472       -0.0963217459
HB2        -2.8943632663       -2.4777487732       -0.0385676280
HB3        -2.9089929144       -3.4317962112        1.4652113346
C          -0.2611500403       -3.0979226795       -0.7884926158
O          -0.1196374494       -4.1293309230       -1.4530018536
N           0.1659846386       -1.9051462647       -1.2278542535
H           0.0118758760       -1.1030042917       -0.6307262772
CA          0.8158738431       -1.6588110546       -2.5224891511
HA          0.7858379202       -2.5680501375       -3.1248810014
CB         -0.0030076647       -0.5908727947       -3.2597296301
HB1         0.4249637551       -0.4188713689       -4.2482929453
HB2         0.0079469520        0.3453453750       -2.6995366890
HB3        -1.0337150079       -0.9288211132       -3.3767678394
C           2.3030239688       -1.2525442079       -2.4007957058
O           3.1012588195       -1.5632468884       -3.2916194943
N           2.6909608540       -0.5835050425       -1.3051688637
H           1.9699651456       -0.3149052703       -0.6445500566
CH3         4.0606881461       -0.1557008945       -1.0209124874
HH31        4.7198102896       -1.0240472185       -0.9582234252
HH32        4.0941302045        0.3819434345       -0.0713399938
HH33        4.4197988905        0.5049655753       -1.8127428635
          52
Energy of minimum      9=    -40.29735456     first found at step     1385 after               929265 function calls
HH31        2.6059834873        4.7517848730       -1.9930220219
CH3         2.8678263741        4.9054562236       -0.9468893663
HH32        3.6407917001        4.1943351696       -0.6580964318
HH33        3.2363041993        5.9211999097       -0.8084606936
C           1.6419929353        4.6866049929       -0.0884821611
O           1.2160571828        5.5971426768        0.6226915442
N           1.0813723115        3.4799493145       -0.1576118869
H           1.5171880499        2.7960177262       -0.7599106506
CA         -0.1009189666        3.0477883439        0.5968600917
HA         -0.1770137647        3.6370606017        1.5128148971
CB         -1.3500334886        3.3175466343       -0.2570068604
HB1        -1.3083849742        2.7323671671       -1.1773018752
HB2        -2.2482117808        3.0451640445        0.2990120301
HB3        -1.4048478534        4.3775453603       -0.5093015032
C          -0.0144545802        1.5630671971        1.0091643567
O           0.7113707836        0.7730456463        0.3968548879
N          -0.7971978730        1.1620487020        2.0180900913
H          -1.3782010393        1.8526984570        2.4739136858
CA         -0.8033808523       -0.2019609797        2.5667491670
HA          0.2111666707       -0.4469548078        2.8866885213
CB         -1.7068745289       -0.2064365318        3.8067052181
HB1        -2.7329411209        0.0367157591        3.5255205286
HB2        -1.6898798642       -1.1943413045        4.2694369877
HB3        -1.3473618514        0.5253593456        4.5317256050
C          -1.2365724754       -1.2855113739        1.5515862876
O          -0.8439908399       -2.4486070331        1.6798264963
N          -1.9884346779       -0.9077855068        0.5092072951