          45
Energy of minimum      1=     0.000000000     first found at step      196 after                65709 function calls
HH31        2.8767214682       -0.8909614326        3.6642364410
CH3         2.3553733391       -1.6074586829        3.0298851522
HH32        2.7958757429       -2.5952604914        3.1617026261
HH33        1.3034994172       -1.6428609596        3.3117831914
C           2.4752979940       -1.1926783147        1.5756111431
O           3.0840753240       -0.1713367320        1.2600163037
N           1.8756218403       -1.9717779425        0.6777439388
H           1.3653377578       -2.7841195764        1.0007699037
CA          1.9194015287       -1.7495873058       -0.7804442306
HA          2.9577173892       -1.5920988777       -1.0770365430
CB          1.4227027575       -3.0116274715       -1.5062475758
HB2         2.1205519690       -3.8266035716       -1.3037427440
HB3         1.4164378180       -2.8285420411       -2.5826478486
OG          0.1179258456       -3.3969648675       -1.0748201682
HG         -0.1535278610       -4.2070896203       -1.5603603219
C           1.1390089984       -0.5051919905       -1.2564223638
O           1.3319274788       -0.0418201910       -2.3847698275
N           0.3024535437        0.0851609807       -0.3911314515
H           0.1715021067       -0.3630088802        0.5056591537
CA         -0.4140199734        1.3478835226       -0.6389336066
HA         -0.6921759990        1.3948259209       -1.6933598409
CB         -1.7107046426        1.3588870510        0.1962099395
HB2        -2.2092054936        2.3200571340        0.0571638187
HB3        -1.4615125725        1.2548603052        1.2541874312
CG         -2.6900722999        0.2452131269       -0.2127286935
HG2        -2.2337024772       -0.7302392498       -0.0385381981
HG3        -2.9193423036        0.3420522116       -1.2751790432
CD         -3.9922832224        0.3349261347        0.5940253956
HD2        -4.4600740426        1.3054944898        0.4163662685
HD3        -3.7637203737        0.2392421596        1.6575117560
CE         -4.9522676579       -0.7854338092        0.1696085539
HE2        -4.4627382416       -1.7503128255        0.3337035570
HE3        -5.1531984454       -0.6905283113       -0.9019177781
NZ         -6.2312897356       -0.7345030575        0.9276847718
HZ1        -6.8524405889       -1.4776915380        0.6372373392
HZ2        -6.7113261612        0.1422847827        0.7770290740
HZ3        -6.0727172874       -0.8381940430        1.9206424264
C           0.4435336406        2.6086866447       -0.3688601108
O           0.0123466053        3.7249039877       -0.6786410717
N           1.6491207047        2.4501634822        0.1946020745
H           1.9361710155        1.5049289028        0.4160556986
CH3         2.5777363596        3.5314691505        0.5113304854
HH31        2.1139828569        4.2291867992        1.2108241612
HH32        2.8526762044        4.0663608461       -0.3994116865
HH33        3.4799789375        3.1203789559        0.9668619810
          45
Energy of minimum      2=    0.7374949959E-01 first found at step      443 after               152363 function calls
HH31        1.4855609415       -1.4724341999        3.3939054295
CH3         2.4916464142       -1.1871832135        3.0879828899
HH32        3.1566670502       -2.0432879492        3.1974937047
HH33        2.8445851272       -0.3715724774        3.7186793044
C           2.4726732284       -0.7465114297        1.6364500502
O           2.8221039343        0.3897679053        1.3199972912
N           2.0474917025       -1.6396047873        0.7444396099
H           1.8166133029       -2.5691370061        1.0709187367
CA          2.0657200917       -1.4348302158       -0.7181042341
HA          3.0771700422       -1.1600860460       -1.0203572029
CB          1.7074032631       -2.7505676110       -1.4298561018
HB2         0.6674124535       -3.0009670229       -1.2096373558
HB3         1.8075112952       -2.6101151641       -2.5081206317
OG          2.5510275549       -3.8231161676       -1.0124677403
HG          2.3027954698       -4.6372002157       -1.5044871235
C           1.1303379360       -0.3133420495       -1.2190868870
O           1.2762715724        0.1606043806       -2.3492678289
N           0.1918736919        0.1502805480       -0.3815870713
H           0.1164910790       -0.2914697381        0.5253928495
CA         -0.7046178877        1.2836576226       -0.6681217490
HA         -0.9645230660        1.2695060236       -1.7282150217
CB         -2.0048933676        1.1094807371        0.1426070503
HB2        -1.7648550435        1.0597779558        1.2066233861
HB3        -2.6402220299        1.9817977283       -0.0221324077
CG         -2.7957470966       -0.1453818076       -0.2650574290
HG2        -2.2005788409       -1.0377203540       -0.0660690053
HG3        -3.0151050502       -0.0993395508       -1.3329903726
CD         -4.1129107121       -0.2422651147        0.5162984754
HD2        -4.7174817886        0.6443801083        0.3143698919
HD3        -3.8943607027       -0.2879752284        1.5852140964
CE         -4.8853222263       -1.4998166058        0.0931827455
HE2        -4.2606442589       -2.3781349910        0.2826957643
HE3        -5.0758938307       -1.4510883471       -0.9833444451
NZ         -6.1731493835       -1.6305324006        0.8264401539
HZ1        -6.0216613239       -1.6953264466        1.8237984954
HZ2        -6.7756866004       -0.8378014463        0.6520246847
HZ3        -6.6699850368       -2.4624160237        0.5372154082
C          -0.0583810744        2.6664891693       -0.4081237104
O          -0.6455632949        3.6959636622       -0.7591268293
N           1.1393320695        2.7078873079        0.1911421553
H           1.5608078231        1.8229588895        0.4480631164
CH3         1.8815515792        3.9259596692        0.5026968211
HH31        1.2956097153        4.5599554232        1.1704347863
HH32        2.0990957986        4.4757045085       -0.4146860728
HH33        2.8217079781        3.6686256516        0.9929974535
          45
Energy of minimum      3=    0.4781867895     first found at step       13 after                 4616 function calls
HH31       -3.3639716000       -3.0767785346       -2.2710901650
CH3        -3.1344912514       -2.0117790508       -2.2543929022
HH32       -4.0263153369       -1.4450115663       -2.5208453201
HH33       -2.3440496405       -1.8034757822       -2.9747939474
C          -2.6686908694       -1.6188465062       -0.8651747451
O          -3.2714694722       -0.7646362939       -0.2168325623
N          -1.5761451789       -2.2248775154       -0.4047610574
H          -1.1070373270       -2.8990176491       -0.9965058016
CA         -1.0012425195       -2.0015108560        0.9358187236
HA         -1.7994009547       -2.0845712919        1.6753123669
CB          0.0251212010       -3.1054610780        1.2421138343
HB2         0.4691882911       -2.9220650771        2.2225696748
HB3        -0.4957349599       -4.0644016840        1.2782917623
OG          1.0516686486       -3.1682896468        0.2524809853
HG          1.6652694061       -3.9028565017        0.4744637203
C          -0.3706971062       -0.6059810130        1.1307945377
O          -0.1128981927       -0.1900453674        2.2644775530
N          -0.1676324401        0.1512674603        0.0436376135
H          -0.3782422128       -0.2630689737       -0.8545291397
CA          0.3274979162        1.5376804648        0.0589847969
HA          0.9939938059        1.6662775971        0.9128015192
CB          1.1369218551        1.7941618101       -1.2310242933
HB2         0.4561092438        1.7622870076       -2.0837959727
HB3         1.5574292318        2.8004292318       -1.1855028142
CG          2.2884969507        0.8064681852       -1.5019248637
HG2         2.7867074876        1.1159033280       -2.4220075271
HG3         1.8823498188       -0.1927157950       -1.6654628065
CD          3.3297108941        0.7492125042       -0.3738055643
HD2         2.8636980872        0.3674806641        0.5361739068
HD3         3.7145125897        1.7539812427       -0.1877179344
CE          4.4828823244       -0.1803830882       -0.7773142596
HE2         4.0773796291       -1.1768081411       -0.9785187598
HE3         4.9288612860        0.1926052189       -1.7044520852
NZ          5.5234037942       -0.2648940965        0.2826663270
HZ1         6.2753552806       -0.8796670550        0.0010817557
HZ2         5.1393908210       -0.6260436862        1.1452401663
HZ3         5.9257244214        0.6426246715        0.4739873768
C          -0.7912795637        2.5918146069        0.2440357485
O          -0.4976531393        3.7843836557        0.3822362500
N          -2.0640208828        2.1725079140        0.2546555253
H          -2.2246774818        1.1796910553        0.1405603764
CH3        -3.2317756208        3.0335997631        0.4188509057
HH31       -4.1411558031        2.4316330857        0.3838038820
HH32       -3.2657706356        3.7736901250       -0.3825851970
HH33       -3.1842272631        3.5481037707        1.3801995755
          45
Energy of minimum      4=    0.7527321829     first found at step      414 after               141851 function calls
HH31        0.9683191196       -1.6244532823        3.2703963011
CH3         2.0162631232       -1.3342769599        3.2014585086
HH32        2.2277630163       -0.5614780748        3.9401273677
HH33        2.6431812175       -2.2036120026        3.3974441698
C           2.3049061293       -0.8093611305        1.8077384472
O           2.7059949934        0.3411939964        1.6384959228
N           2.0820810074       -1.6433888891        0.7940806360
H           1.7250577500       -2.5692267569        0.9941343866
CA          2.3453250431       -1.3231733189       -0.6221652077
HA          3.3552360583       -0.9181079785       -0.7050296724
CB          2.3006427348       -2.6147880119       -1.4564171699
HB2         3.1185783584       -3.2636710617       -1.1368593309
HB3         2.4530600315       -2.3684745943       -2.5091761457
OG          1.0644613683       -3.3102748496       -1.2976991656
HG          1.0838177342       -4.1265804538       -1.8445470003
C           1.4004762239       -0.2573352748       -1.2181718482
O           1.6893611308        0.3104941179       -2.2760905609
N           0.3016921591        0.0721297463       -0.5243611722
H           0.1123793132       -0.4518781906        0.3192916666
CA         -0.6292570116        1.1551717372       -0.8846965730
HA         -0.7009971918        1.2111084530       -1.9724240781
CB         -2.0290073307        0.8156982099       -0.3325119265
HB2        -1.9682574309        0.7076918969        0.7517150537
HB3        -2.7039025975        1.6439147743       -0.5567479420
CG         -2.6141536125       -0.4653817230       -0.9566360449
HG2        -2.0070376432       -1.3263927805       -0.6735868892
HG3        -2.5847326760       -0.3701464175       -2.0430868273
CD         -4.0693838225       -0.7262639319       -0.5379323246
HD2        -4.4313016885       -1.5957316245       -1.0902066115
HD3        -4.6814002778        0.1342082956       -0.8158707032
CE         -4.2029104978       -0.9951994021        0.9694876007
HE2        -3.8598058422       -0.1148458171        1.5210109885
HE3        -3.5521390926       -1.8336395785        1.2364746796
NZ         -5.6067201387       -1.3076099972        1.3513354647
HZ1        -5.6806705952       -1.4825419649        2.3446325825
HZ2        -5.9424694077       -2.1308184638        0.8700153140
HZ3        -6.2264783889       -0.5406289347        1.1283203442
C          -0.1599109930        2.5551900733       -0.4181233036
O          -0.7766953493        3.5636449973       -0.7790888188
N           0.9212371455        2.6344866268        0.3698022560
H           1.3769741780        1.7657404026        0.6198663874
CH3         1.4917914211        3.8729044393        0.8920395106
HH31        0.7536220582        4.3959689286        1.5025144035
HH32        2.3636150241        3.6457849584        1.5075808068
HH33        1.7985370658        4.5193960719        0.0679552767
          45
Energy of minimum      5=    0.8133621596     first found at step      409 after               140092 function calls
HH31        2.1650745187       -0.2959781721        3.9503167678
CH3         2.1319452087       -1.0835707174        3.1978729451
HH32        2.9575108369       -1.7755310350        3.3615826701
HH33        1.1891241163       -1.6235026210        3.2798078240
C           2.2491821592       -0.4786162068        1.8116009349
O           2.3595815851        0.7376628648        1.6639433116
N           2.2091008857       -1.3242388540        0.7833118753
H           2.1602796608       -2.3154921698        0.9807900886
CA          2.4226701528       -0.9378283647       -0.6260614919
HA          3.3736021065       -0.4090870269       -0.7036729446
CB          2.5179819856       -2.1998795202       -1.5002825298
HB2         2.7611118714       -1.9060182847       -2.5234815273
HB3         1.5475597761       -2.7009021469       -1.5065790419
OG          3.5131548902       -3.1018711262       -1.0182849299
HG          3.5553453101       -3.8821752186       -1.6147658533
C           1.3417201056        0.0012322275       -1.2033057029
O           1.5571857745        0.6353017317       -2.2400038751
N           0.1912400427        0.1337425880       -0.5279810867
H           0.0736217686       -0.4249578975        0.3071230582
CA         -0.8923137178        1.0644952672       -0.8887990003
HA         -0.9518496526        1.1322947007       -1.9766612438
CB         -2.2308709917        0.4969010029       -0.3740877134
HB2        -3.0234561457        1.2138654007       -0.5966095208
HB3        -2.1738264415        0.3751635378        0.7088822109
CG         -2.5956090128       -0.8453906974       -1.0358878494
HG2        -2.5604298714       -0.7222167197       -2.1193451317
HG3        -1.8664035075       -1.6068560228       -0.7558156895
CD         -3.9998225590       -1.3399081556       -0.6553746517
HD2        -4.2098129960       -2.2432832795       -1.2314110911
HD3        -4.7336476818       -0.5801004199       -0.9318564947
CE         -4.1198094449       -1.6584593251        0.8435320401
HE2        -3.9299997828       -0.7472431101        1.4185195097
HE3        -3.3513315498       -2.3904939337        1.1106543326
NZ         -5.4648110412       -2.1942549596        1.1870741994
HZ1        -5.5304521724       -2.3996532941        2.1751104063
HZ2        -6.1923853151       -1.5288721046        0.9634715423
HZ3        -5.6578214153       -3.0493697876        0.6834903982
C          -0.6606227045        2.5107732710       -0.3867369842
O          -1.4169518648        3.4175933530       -0.7518649499
N           0.3720560971        2.7424443434        0.4349642752
H           0.9503603081        1.9500631505        0.6888625793
CH3         0.7273352337        4.0445523014        0.9917687138
HH31        1.6062283586        3.9441206070        1.6304982573
HH32       -0.1002614453        4.4348928186        1.5866404537
HH33        0.9526126766        4.7461487455        0.1866873356
          45
Energy of minimum      6=    0.8252346321     first found at step      440 after               151326 function calls
HH31        1.4779700537       -1.4668899708        3.3819488041
CH3         2.4877405155       -1.1929792486        3.0778420591
HH32        3.1431620055       -2.0561037969        3.1899470879
HH33        2.8481631087       -0.3802784857        3.7080569193
C           2.4765529168       -0.7544343849        1.6257338676
O           2.8380687417        0.3776433665        1.3080152084
N           2.0436894013       -1.6444867374        0.7342355941
H           1.7954830802       -2.5693625463        1.0625539272
CA          2.0587820013       -1.4397006655       -0.7281178474
HA          3.0692239409       -1.1637679321       -1.0334540298
CB          1.6898995972       -2.7557848533       -1.4366183017
HB2         0.6405385025       -2.9783257164       -1.2332508360
HB3         1.8068449176       -2.6306970734       -2.5151298819
OG          2.4849622579       -3.8565662060       -0.9941509847
HG          3.4043001051       -3.7503995581       -1.3252888445
C           1.1238599665       -0.3156281437       -1.2248966000
O           1.2644850925        0.1562486909       -2.3565654499
N           0.1919682278        0.1518882842       -0.3822246805
H           0.1201995776       -0.2892915888        0.5253596565
CA         -0.7031851640        1.2874948214       -0.6642075937
HA         -0.9639439274        1.2776341664       -1.7241434054
CB         -2.0031717781        1.1119014064        0.1467113760
HB2        -1.7625804327        1.0584970519        1.2104212951
HB3        -2.6378620165        1.9852770139       -0.0148379598
CG         -2.7952640581       -0.1410028208       -0.2646230633
HG2        -2.2006504284       -1.0344583147       -0.0690051486
HG3        -3.0152505406       -0.0912411946       -1.3322595483
CD         -4.1120050547       -0.2396391274        0.5172071670
HD2        -4.7161968119        0.6479932973        0.3185121048
HD3        -3.8928399386       -0.2889586088        1.5858357345
CE         -4.8853069094       -1.4954106330        0.0904320665
HE2        -4.2609174472       -2.3746515457        0.2766028161
HE3        -5.0765661424       -1.4430214014       -0.9858013416
NZ         -6.1727036691       -1.6279735532        0.8241080377
HZ1        -6.6701110424       -2.4586617187        0.5324384116
HZ2        -6.7749888086       -0.8343883139        0.6527389929
HZ3        -6.0205777977       -1.6961733241        1.8211417375
C          -0.0547207177        2.6684336959       -0.3996934132
O          -0.6419712639        3.7002015667       -0.7437613692
N           1.1450095155        2.7057085024        0.1958702532
H           1.5665701678        1.8192041192        0.4468274955
CH3         1.8893027049        3.9215850756        0.5111564387
HH31        1.3060569320        4.5527231684        1.1839471350
HH32        2.1043689876        4.4757652742       -0.4041422114
HH33        2.8308156343        3.6610345217        0.9971414493
          45
Energy of minimum      7=    0.8366676186     first found at step      474 after               164285 function calls
HH31        1.7876554331       -1.0985755526        3.4027424226
CH3         2.7568315150       -0.6783494412        3.1357783478
HH32        3.5340452711       -1.4170882340        3.3291052422
HH33        2.9446009402        0.2106542127        3.7374308527
C           2.7621231119       -0.3156602006        1.6627617765
O           2.9489578074        0.8450310345        1.3004680051
N           2.5349764582       -1.3042512527        0.8002929876
H           2.3595244905       -2.2340464491        1.1599311208
CA          2.5427769657       -1.1485430815       -0.6671134493
HA          3.4534905388       -0.6211687269       -0.9558133560
CB          2.5882611054       -2.5361144238       -1.3296024582
HB2         2.5507930741       -2.4181362426       -2.4144444616
HB3         3.5357023110       -3.0136854717       -1.0717749580
OG          1.5132217924       -3.3695632151       -0.8975250607
HG          1.5861972023       -4.2427829857       -1.3424627943
C           1.3660326616       -0.3178632230       -1.2233146450
O           1.4085215626        0.1322731401       -2.3725219269
N           0.3381285465       -0.0513295425       -0.4050760657
H           0.3548062206       -0.4748539698        0.5128649628
CA         -0.7940715638        0.8314724246       -0.7337910571
HA         -1.0345352169        0.7176316878       -1.7924186296
CB         -2.0261722651        0.3920260581        0.0842921138
HB2        -1.7859391493        0.4306783413        1.1487467844
HB3        -2.8359360128        1.0969687494       -0.1080951313
CG         -2.5076200547       -1.0248417905       -0.2827465404
HG2        -1.7012059645       -1.7373830972       -0.1056970578
HG3        -2.7617486548       -1.0560853293       -1.3433824869
CD         -3.7240154893       -1.4788540482        0.5393892101
HD2        -3.4788014350       -1.4213475745        1.6018313441
HD3        -3.9297626799       -2.5222010149        0.2922433012
CE         -4.9766947642       -0.6372290572        0.2472078423
HE2        -4.7794633152        0.4038300713        0.5192569392
HE3        -5.1801953638       -0.6704836759       -0.8275987360
NZ         -6.1617664103       -1.1330273266        0.9980162328
HZ1        -6.9780014800       -0.5710715755        0.7964016636
HZ2        -6.0043737311       -1.0978448441        1.9960226976
HZ3        -6.3793229146       -2.0884105760        0.7491531464
C          -0.4845172724        2.3348218151       -0.5274054670
O          -1.2932737804        3.1880691748       -0.9089605888
N           0.6711924489        2.6723578868        0.0611818591
H           1.2851857552        1.9182030475        0.3426303793
CH3         1.1122470986        4.0389000541        0.3256446179
HH31        1.1974060698        4.5917928994       -0.6114870852
HH32        2.0862093281        4.0228037603        0.8172643922
HH33        0.3954724350        4.5435201730        0.9758473599
          45
Energy of minimum      8=    0.8603736258     first found at step        8 after                 2971 function calls
HH31       -4.0617790399       -1.9261919759       -2.3972524123
CH3        -3.4892079757       -0.9992307464       -2.4049334007
HH32       -4.1465534620       -0.1697696963       -2.6646539473
HH33       -2.6924759710       -1.0752902834       -3.1442601088
C          -2.8849122350       -0.7690728115       -1.0326189922
O          -3.1586205305        0.2414692332       -0.3867603457
N          -2.0434893519       -1.6992187995       -0.5844884610
H          -1.8982693625       -2.5252236815       -1.1507077273
CA         -1.4486693086       -1.7074349860        0.7673483507
HA         -2.2510573431       -1.6370880338        1.5029435798
CB         -0.7159329964       -3.0394489163        1.0023391926
HB2         0.1450850016       -3.0934705872        0.3326223475
HB3        -0.3544654481       -3.0696450041        2.0323121070
OG         -1.5688196757       -4.1591756659        0.7678137132
HG         -1.0698184596       -4.9867656208        0.9480264537
C          -0.4822030077       -0.5367403179        1.0486192787
O          -0.1574774748       -0.2617978955        2.2069466263
N          -0.0425303485        0.1854957754        0.0084321252
H          -0.3355933352       -0.1023851491       -0.9163265433
CA          0.7942381366        1.3928399894        0.1152790589
HA          1.4598265777        1.2889680700        0.9730903252
CB          1.6565260921        1.5172980385       -1.1594788926
HB2         0.9961620082        1.6752332052       -2.0143144406
HB3         2.2908078827        2.4011024157       -1.0694517099
CG          2.5624084549        0.3101494235       -1.4693205732
HG2         3.1040346440        0.5262303288       -2.3915331617
HG3         1.9487593523       -0.5745963359       -1.6442151205
CD          3.5821635683        0.0083626361       -0.3604534821
HD2         4.1643837411        0.9085823807       -0.1529792201
HD3         3.0581029823       -0.2978943076        0.5465141390
CE          4.5213923760       -1.1209332496       -0.8080915763
HE2         3.9238069850       -2.0109881686       -1.0281174444
HE3         5.0212856956       -0.8175725058       -1.7332049524
NZ          5.5382334547       -1.4404994022        0.2301079082
HZ1         6.1489972463       -2.1842394779       -0.0806211206
HZ2         5.1020864217       -1.7421194020        1.0907849951
HZ3         6.1159530808       -0.6368728259        0.4363221297
C          -0.0148346955        2.6872241181        0.3744902397
O           0.5775194550        3.7437317141        0.6202995432
N          -1.3524021776        2.6224869061        0.3316891120
H          -1.7676739285        1.7212775307        0.1262415306
CH3        -2.2557158391        3.7474967718        0.5557226122
HH31       -3.2899472237        3.4143272730        0.4562983076
HH32       -2.0642092135        4.5322660701       -0.1781906737
HH33       -2.1082344849        4.1509273381        1.5590353782
          45
Energy of minimum      9=    0.9257945056     first found at step      191 after                64013 function calls
HH31        2.4981100321       -3.0105828333        2.9529032651
CH3         2.2590279516       -1.9522937224        2.8527362732
HH32        2.9839759635       -1.3627181986        3.4134806723
HH33        1.2603370124       -1.7707352299        3.2487063832
C           2.3001232584       -1.5634120219        1.3870068689
O           3.0676030844       -0.6883630080        0.9889031293
N           1.4570466329       -2.1968888455        0.5741193484
H           0.8298187341       -2.8882290784        0.9656360526
CA          1.3849404121       -1.9825533839       -0.8841750457
HA          2.3930548150       -2.0493515082       -1.2965354437
CB          0.5512377131       -3.1053718606       -1.5246715745
HB2         0.4675083124       -2.9236240402       -2.5980328480
HB3         1.0740770103       -4.0528600340       -1.3796076963
OG         -0.7514817463       -3.1980627594       -0.9482505317
HG         -1.2393571587       -3.9345450628       -1.3786071832
C           0.8367590325       -0.5993236943       -1.2958767806
O           1.0055530257       -0.1775423042       -2.4441781821
N           0.2307681593        0.1424172355       -0.3582645519
H           0.1063125117       -0.2770571843        0.5533476880
CA         -0.2540196545        1.5197928428       -0.5507770350
HA         -0.5682586164        1.6429233677       -1.5887659772
CB         -1.4881155347        1.7418917593        0.3476641930
HB2        -1.2136772198        1.5684414413        1.3901806900
HB3        -1.8127733140        2.7794593487        0.2491315052
CG         -2.6673064072        0.8293370961       -0.0324285624
HG2        -2.3741961963       -0.2134487198        0.0893267912
HG3        -2.9303123928        1.0023670454       -1.0771974489
CD         -3.8923031373        1.1170998890        0.8495183659
HD2        -4.1550014455        2.1717180258        0.7463802232
HD3        -3.6447990707        0.9324614434        1.8968202987
CE         -5.1178578030        0.2787429359        0.4489601439
HE2        -5.3133229284        0.4247807030       -0.6177875734
HE3        -5.9857884805        0.6587503893        0.9965252455
NZ         -4.9489843931       -1.1713849744        0.7439937308
HZ1        -4.1820447543       -1.5700893549        0.2199259267
HZ2        -5.7845258896       -1.6860139684        0.4986947175
HZ3        -4.7744506220       -1.3262834165        1.7278518480
C           0.8320559140        2.5963568788       -0.3071728014
O           0.5852679785        3.7851331234       -0.5389448339
N           2.0286897811        2.2008504483        0.1484622318
H           2.1588721641        1.2096418562        0.3075198920
CH3         3.1562111246        3.0854201440        0.4282314503
HH31        3.4535401427        3.6105401637       -0.4811667614
HH32        4.0021173179        2.5000012004        0.7919364369
HH33        2.8776916467        3.8162353022        1.1894889089
          45
Energy of minimum     10=     1.024583390     first found at step      202 after                67654 function calls
HH31        3.3005042411       -0.7598497840        3.4066274137
CH3         2.7075210749       -1.4980570103        2.8671883097
HH32        3.1680278666       -2.4798230005        2.9731981415
HH33        1.7004166185       -1.5271723605        3.2819831242
C           2.6382719253       -1.1305085507        1.3970082189
O           3.1947582901       -0.1182840469        0.9738512373
N           1.9344281409       -1.9400654908        0.6083370447
H           1.4751441888       -2.7428994140        1.0196342068
CA          1.7905240738       -1.7653475463       -0.8498722979
HA          2.7814612591       -1.6146346429       -1.2813734267
CB          1.2142006804       -3.0517987482       -1.4655779838
HB2         1.0706317656       -2.9044236793       -2.5378928667
HB3         1.9373137061       -3.8580286538       -1.3266894597
OG         -0.0230193312       -3.4255781812       -0.8600844924
HG         -0.3472607621       -4.2532453805       -1.2790699163
C           0.9471212234       -0.5393670434       -1.2617935452
O           0.9906887102       -0.1127137472       -2.4198537822
N           0.2241042965        0.0766328615       -0.3158230503
H           0.2125881342       -0.3421785496        0.6043972425
CA         -0.5264474166        1.3288869542       -0.5097060511
HA         -0.9382947655        1.3408610485       -1.5204681400
CB         -1.7043147130        1.3640511201        0.4855287517
HB2        -1.3185999350        1.2971517065        1.5048804805
HB3        -2.2237978284        2.3184878762        0.3808072732
CG         -2.7205911024        0.2340829352        0.2454900635
HG2        -3.0825197320        0.2970601585       -0.7812029700
HG3        -2.2375455914       -0.7330672220        0.3914541735
CD         -3.9046358008        0.3484160711        1.2185574587
HD2        -3.5169189717        0.3326108918        2.2390197828
HD3        -4.4168712708        1.3008631662        1.0679858455
CE         -4.9059981806       -0.8094203530        1.0713992556
HE2        -5.6110540182       -0.7596668916        1.9068338415
HE3        -4.3659022101       -1.7575757635        1.1538081632
NZ         -5.6622870145       -0.7610095431       -0.2106710038
HZ1        -6.1727585905        0.1070865366       -0.3014808548
HZ2        -6.3344403608       -1.5153268298       -0.2584659830