          52
Energy of minimum      1=    -15.33241091     first found at step      547 after               286058 function calls
HH31       -2.8449533296       -2.1311965280       -0.7419718656
CH3        -2.1012446402       -1.8901183495        0.0157974365
HH32       -2.1203993562       -2.6452452908        0.7999838277
HH33       -2.3181061102       -0.9141119457        0.4432405957
C          -0.7359202884       -1.8578588524       -0.6267315357
O          -0.6319967292       -1.6351902158       -1.8284659181
N           0.3195352050       -2.0520367960        0.1602182559
H           0.1642571440       -2.1100948603        1.1617404040
CA          1.7010654384       -2.0823051881       -0.3230607519
HA          1.7652809135       -2.7883005534       -1.1523466858
CB          2.5995837932       -2.5995143382        0.8080824734
HB1         3.6353767550       -2.6320763507        0.4686496566
HB2         2.2888193503       -3.6034161305        1.0996249377
HB3         2.5311243708       -1.9390188303        1.6739169094
C           2.1266833009       -0.6941866439       -0.8389706182
O           2.4151463222        0.2093241737       -0.0581040984
N           2.0734794954       -0.4871551470       -2.1586104479
H           1.7486631635       -1.2398470864       -2.7462202268
CA          2.2050600562        0.8454521383       -2.7594493002
HA          3.1606491673        1.2755021398       -2.4536507927
CB          2.2094942824        0.6823097973       -4.2841198646
HB1         3.0304803700        0.0313146200       -4.5869230366
HB2         1.2628220226        0.2559827561       -4.6195498677
HB3         2.3440763276        1.6587351346       -4.7522261362
C           1.0982188837        1.8231124404       -2.2986408828
O           1.3017948744        3.0329450506       -2.3154508779
N          -0.0478825299        1.2996332540       -1.8459209663
H          -0.1660203094        0.2964067311       -1.9236085972
CA         -1.1384042354        2.0526443636       -1.2224324562
HA         -0.9808750710        3.1154982147       -1.4133207301
CB         -2.4472291513        1.6532638170       -1.9190440626
HB1        -2.6603471191        0.5988429813       -1.7411935972
HB2        -2.3630495699        1.8278916097       -2.9923677835
HB3        -3.2703573091        2.2544049407       -1.5305622754
C          -1.1941767422        1.8997458032        0.3184096250
O          -2.2276145118        2.1724072763        0.9296833653
N          -0.1236106917        1.4238773648        0.9693548136
H           0.7215305123        1.2134810101        0.4503754851
CA         -0.0964497536        1.2131273783        2.4188221166
HA         -0.5602874423        2.0773811455        2.8972847595
CB          1.3615122755        1.1670466529        2.8952674540
HB1         1.8864066384        2.0690019668        2.5779908381
HB2         1.3881459260        1.1036155930        3.9833540647
HB3         1.8668159355        0.2944510062        2.4823969740
C          -0.9064742718       -0.0358262677        2.8268521670
O          -0.4007474607       -1.1600602112        2.8136255711
N          -2.1858971927        0.1657630660        3.1622154752
H          -2.5518831607        1.0993708078        3.0231833012
CH3        -3.1080222771       -0.8786048086        3.6040967946
HH31       -3.9734860498       -0.4294535801        4.0934600556
HH32       -3.4450860006       -1.4623576746        2.7464443434
HH33       -2.6055012201       -1.5445575847        4.3088716747
          52
Energy of minimum      2=    -14.51727918     first found at step       86 after                44833 function calls
HH31       -2.6433018033       -0.0439261264       -2.6146180058
CH3        -3.5826588145       -0.0519399229       -2.0663389339
HH32       -4.1284116405        0.8662630673       -2.2742478913
HH33       -4.1792247304       -0.9114355662       -2.3681296357
C          -3.3054899950       -0.1355227945       -0.5846483455
O          -3.8182217844       -1.0189822772        0.0910423353
N          -2.4731976106        0.7674224641       -0.0730007963
H          -2.0226461619        1.4041087633       -0.7220759348
CA         -2.1761496706        0.9259046770        1.3565676293
HA         -3.1098435049        0.7829957990        1.9031473677
CB         -1.7236177118        2.3735632227        1.5945472922
HB1        -2.4657863551        3.0679571831        1.1990012598
HB2        -1.6094002473        2.5513696207        2.6646987302
HB3        -0.7658052140        2.5449686253        1.1040488545
C          -1.1873028787       -0.1294093379        1.9111431184
O          -0.2721833942        0.1917263579        2.6702595528
N          -1.3231789010       -1.3905665147        1.4915434925
H          -2.1265457637       -1.5973347378        0.9075081961
CA         -0.4137129839       -2.4906016957        1.8171138452
HA         -0.1961346272       -2.4576965189        2.8860293384
CB         -1.1386681179       -3.8124259583        1.5265111116
HB1        -1.3970041092       -3.8742509466        0.4679908189
HB2        -2.0501093873       -3.8754368443        2.1224211298
HB3        -0.4890105581       -4.6504629414        1.7817194151
C           0.9277427782       -2.3444706184        1.0656812166
O           1.1745131758       -3.0013537054        0.0560711932
N           1.7635785065       -1.3969302643        1.4980814005
H           1.4383556055       -0.8174740757        2.2645576301
CA          3.0177355455       -1.0057629943        0.8436501351
HA          3.5090390460       -1.9125040677        0.4866137358
CB          3.9307275882       -0.3676717986        1.9007370436
HB1         3.4809971104        0.5536382773        2.2741766355
HB2         4.8997726751       -0.1347633076        1.4571723603
HB3         4.0811804183       -1.0597162039        2.7301207481
C           2.7865125251       -0.1114607453       -0.4007008660
O           3.4889851098        0.8745910792       -0.6223649442
N           1.7490477790       -0.4126087516       -1.1870262561
H           1.2576699857       -1.2745163735       -0.9838137393
CA          1.2860655298        0.3765613558       -2.3282186033
HA          2.1579754595        0.6845460385       -2.9079042791
CB          0.4379190381       -0.5420313579       -3.2196480860
HB1         0.0786518160        0.0151559864       -4.0857993714
HB2        -0.4160599488       -0.9232385048       -2.6589389072
HB3         1.0412637613       -1.3825346025       -3.5652337629
C           0.5581569269        1.6703484030       -1.8893515236
O          -0.6561067595        1.8056972114       -2.0504836429
N           1.3067488272        2.6088915166       -1.2973192879
H           2.2813482027        2.3707997250       -1.1357384950
CH3         0.8408439096        3.9200694287       -0.8457291046
HH31        1.1493239445        4.0843107917        0.1879721517
HH32       -0.2474433723        3.9860820686       -0.9044380068
HH33        1.2730607816        4.7000578918       -1.4743593188
          52
Energy of minimum      3=    -14.30641442     first found at step      614 after               320442 function calls
HH31       -0.0571590988       -2.9947854353       -2.2922529153
CH3        -0.4605307472       -2.5514996958       -1.3833341994
HH32       -1.1200509471       -1.7261714152       -1.6407962490
HH33       -1.0159337420       -3.3034366394       -0.8250494028
C           0.6790095169       -2.0301134249       -0.5422908754
O           1.7333878182       -1.7052611613       -1.0786187298
N           0.4780415804       -1.9195156653        0.7687783799
H          -0.4573902665       -2.0883512448        1.1248339136
CA          1.4980345708       -1.4504047040        1.7084820678
HA          2.4013833754       -2.0457905499        1.5686761435
CB          0.9909925261       -1.6876278437        3.1369385631
HB1         0.8080079586       -2.7511907659        3.2941766925
HB2         1.7381293792       -1.3450351936        3.8535544248
HB3         0.0632966724       -1.1374589145        3.3020762709
C           1.8433584959        0.0258121548        1.4346038419
O           1.0552012618        0.9178437702        1.7380861717
N           2.9834808409        0.2753539863        0.7781010116
H           3.5484544482       -0.5172480969        0.5155454703
CA          3.3176293997        1.5713902397        0.1659126202
HA          4.1646796906        1.3927263814       -0.4965945468
CB          3.8061788825        2.5459009417        1.2499732052
HB1         2.9840181982        2.8026109485        1.9194706969
HB2         4.1744881789        3.4599623786        0.7824006613
HB3         4.6134891707        2.0926173406        1.8255196880
C           2.1996509674        2.1358693481       -0.7515408660
O           2.0530888909        3.3463819262       -0.8965286757
N           1.3942700509        1.2506201354       -1.3527715802
H           1.6065751594        0.2676570440       -1.2297721789
CA          0.2293433935        1.5798709462       -2.1792125526
HA          0.2473955718        2.6492818988       -2.3956244019
CB          0.3774595754        0.8415429502       -3.5175324817
HB1         1.3271320625        1.1070343457       -3.9835583919
HB2        -0.4332513314        1.1279454969       -4.1887747898
HB3         0.3435155395       -0.2364438335       -3.3564283954
C          -1.1275405480        1.3111784987       -1.4810935485
O          -2.1542057321        1.1851018823       -2.1492256007
N          -1.1610160260        1.1708551091       -0.1497284409
H          -0.3042353342        1.2828763439        0.3821729233
CA         -2.3862471213        0.8807343312        0.5982120365
HA         -3.1859515684        1.5063767813        0.1982477444
CB         -2.1892832023        1.2880537986        2.0646133279
HB1        -1.8880878289        2.3347244978        2.1233483264
HB2        -3.1242331000        1.1551330939        2.6094435793
HB3        -1.4226116826        0.6685213331        2.5291683583
C          -2.8180690406       -0.5915637027        0.4311815147
O          -2.3591942102       -1.4802521739        1.1521529642
N          -3.6880697989       -0.8495908255       -0.5520691172
H          -3.9135814510       -0.0827398059       -1.1733407983
CH3        -4.2429708194       -2.1678814167       -0.8531804089
HH31       -4.4860946815       -2.6904387526        0.0745137912
HH32       -3.5142176343       -2.7582017977       -1.4102391754
HH33       -5.1497672640       -2.0629748443       -1.4506260668
          52
Energy of minimum      4=    -14.15030460     first found at step      464 after               242580 function calls
HH31       -2.1568494119        1.2159921587       -0.5588672267
CH3        -2.8191582874        0.3921639672       -0.3033921382
HH32       -3.4642228133        0.1664315469       -1.1510343313
HH33       -3.4292753645        0.6651398763        0.5561103764
C          -1.9922182770       -0.8270110691        0.0242798752
O          -1.7691913536       -1.6644069780       -0.8438260350
N          -1.5126564902       -0.9285800288        1.2618878570
H          -1.6561754165       -0.1490364843        1.8956940920
CA         -0.7296743060       -2.0666089363        1.7479668603
HA         -1.2838962488       -2.9841406347        1.5448881478
CB         -0.5804538305       -1.9301687779        3.2692092737
HB1        -1.5639960852       -1.9238324817        3.7404838493
HB2        -0.0048166495       -2.7704979101        3.6587421334
HB3        -0.0610235400       -1.0014715535        3.5131644057
C           0.6279700787       -2.1545302786        1.0225774850
O           1.5662455086       -1.4306355361        1.3486636889
N           0.7104906373       -2.9804554294       -0.0258136795
H          -0.1193356226       -3.4863740589       -0.2967579218
CA          1.8489952254       -2.9858973279       -0.9518707158
HA          2.7653701961       -3.1509378785       -0.3819264111
CB          1.6652479326       -4.1541929247       -1.9277627862
HB1         2.5200300752       -4.1983760739       -2.6045353879
HB2         0.7555432690       -4.0157399654       -2.5140523967
HB3         1.6043941882       -5.0935547311       -1.3768817064
C           2.0131619996       -1.6433051989       -1.7008651055
O           3.1245384829       -1.2749468804       -2.0661452165
N           0.9221776606       -0.8864417751       -1.8713257676
H           0.0308392991       -1.2775615503       -1.5886197817
CA          0.9197877247        0.4989968748       -2.3524996127
HA          1.8645114538        0.6920072641       -2.8637250109
CB         -0.2014625276        0.6389724915       -3.3920458279
HB1        -1.1712960053        0.4717179099       -2.9227000959
HB2        -0.0574676543       -0.0887440932       -4.1915717017
HB3        -0.1815969526        1.6408149703       -3.8230958609
C           0.8288657126        1.5381866061       -1.2062237793
O           0.4372862673        2.6811395852       -1.4360889834
N           1.1453547337        1.1355633369        0.0324328239
H           1.5006452962        0.1921682094        0.1325040763
CA          0.9718840833        1.8707466594        1.2915052969
HA          1.2056555763        1.1610475087        2.0869536844
CB          2.0243483873        2.9844118438        1.4044543557
HB1         1.8743253424        3.7324382067        0.6251788332
HB2         1.9457213602        3.4643438353        2.3805346946
HB3         3.0228774133        2.5579399054        1.3001126374
C          -0.4737889404        2.3295377486        1.5837322718
O          -1.1508382463        1.7214407300        2.4135609899
N          -0.9634318747        3.3652049622        0.8940594966
H          -0.3854199883        3.7149797599        0.1367297173
CH3        -2.2895128735        3.9486017722        1.0835397124
HH31       -2.4699367934        4.7158738521        0.3291748161
HH32       -3.0532710759        3.1743567950        0.9970794037
HH33       -2.3553012749        4.3972301801        2.0764066258
          52
Energy of minimum      5=    -13.87186445     first found at step      591 after               307529 function calls
HH31       -3.8729104487       -0.1627935336        1.7232090725
CH3        -4.2005102018       -1.0572046272        1.1960203900
HH32       -4.6842845900       -1.7320318911        1.8991935212
HH33       -4.8987461827       -0.7860034123        0.4058897055
C          -3.0116715268       -1.7607528364        0.5855241047
O          -3.1039855917       -2.2903712863       -0.5158945257
N          -1.8814377614       -1.7575630004        1.2858509538
H          -1.8419620130       -1.1778794808        2.1153593794
CA         -0.6784604065       -2.5061711882        0.9170516634
HA         -0.9997229263       -3.4447690121        0.4618908449
CB          0.0774399421       -2.8749327303        2.2010321030
HB1         0.3711961115       -1.9738285350        2.7356749203
HB2        -0.5628735639       -3.4777786157        2.8460381847
HB3         0.9693848712       -3.4511834626        1.9519614225
C           0.1776786650       -1.7885002241       -0.1519772856
O           1.3517572328       -1.4816177307        0.0636398991
N          -0.4153564387       -1.5019569666       -1.3146472038
H          -1.3983656030       -1.7395636912       -1.4022528532
CA          0.2662855322       -0.9611869974       -2.4937443384
HA          1.0937847978       -1.6256943493       -2.7459933701
CB         -0.7236103554       -0.9835894432       -3.6662168183
HB1        -1.5846268027       -0.3515989981       -3.4409738585
HB2        -1.0652303251       -2.0036219505       -3.8468468274
HB3        -0.2354751989       -0.6076954754       -4.5661010601
C           0.8490123062        0.4453462563       -2.2405805889
O           0.1355791829        1.4455106347       -2.2785442433
N           2.1491738790        0.5190695114       -1.9339728910
H           2.6660437747       -0.3423306251       -1.8489029881
CA          2.8051136433        1.7569120953       -1.4976370050
HA          2.6354580512        2.5282570925       -2.2512682713
CB          4.3124057433        1.4913730546       -1.4036864450
HB1         4.6942688868        1.1648753808       -2.3717349894
HB2         4.5135969845        0.7242975223       -0.6543516353
HB3         4.8245155988        2.4109234765       -1.1159096427
C           2.2407089229        2.2935315788       -0.1630906321
O           2.2683002735        3.4967474992        0.0753923323
N           1.6740042955        1.4146654983        0.6715757974
H           1.7162523012        0.4340045227        0.4191550282
CA          0.8563527849        1.7603567478        1.8361954190
HA          0.9384674905        2.8335386684        2.0159562885
CB          1.4341831702        1.0556004633        3.0705844049
HB1         1.4298857021       -0.0221217319        2.9223556696
HB2         0.8379724202        1.3023718222        3.9499419737
HB3         2.4597162517        1.3879879829        3.2353905071
C          -0.6439990842        1.4924094645        1.5677623675
O          -1.3511374188        0.9137672842        2.3951897239
N          -1.1149770641        1.8645068280        0.3695015830
H          -0.4527431060        2.2563955802       -0.2901904351
CH3        -2.4953258975        1.7384801715       -0.0885456837
HH31       -3.1846534349        1.8655351345        0.7478154933
HH32       -2.6447826467        0.7601910954       -0.5459421186
HH33       -2.7016902271        2.5060864294       -0.8361470430
          52
Energy of minimum      6=    -13.85380753     first found at step      558 after               290633 function calls
HH31       -2.4121323921       -0.7329832120       -0.2799061358
CH3        -2.0958346760       -1.7343051789       -0.5627009419
HH32       -2.4522867319       -2.4532916928        0.1732629389
HH33       -2.5020431125       -1.9830791453       -1.5418515787
C          -0.5885813542       -1.7748273061       -0.6306263851
O          -0.0301527942       -1.5883139136       -1.7053720522
N           0.0650136351       -1.9995882854        0.5090541516
H          -0.4978660527       -2.0399002657        1.3527635376
CA          1.5228067761       -2.0331061733        0.6882903137
HA          1.6994453285       -2.0383645084        1.7650545345
CB          2.0951384538       -3.3565212104        0.1554613543
HB1         1.9165497181       -3.4460310575       -0.9168154564
HB2         1.6159931322       -4.1940304389        0.6640419015
HB3         3.1682796736       -3.3960516337        0.3464105289
C           2.2333334969       -0.7637710378        0.1752360767
O           2.3860440685        0.1907184653        0.9315726755
N           2.5924084374       -0.6970014522       -1.1108904790
H           2.3492149247       -1.4757386902       -1.7053868736
CA          3.0517973289        0.5422233980       -1.7496558064
HA          3.9146509366        0.9227112989       -1.1999523341
CB          3.4927802138        0.2056908865       -3.1790707326
HB1         4.2866618136       -0.5418123462       -3.1574927780
HB2         3.8711593098        1.1073470025       -3.6631840187
HB3         2.6472981888       -0.1771066110       -3.7528150501
C           1.9758403144        1.6530261107       -1.7360267991
O           2.3076052361        2.8339094658       -1.7658252373
N           0.6963632216        1.2728086250       -1.6409807392
H           0.5051603712        0.2792647784       -1.6981487186
CA         -0.4491139735        2.1634125617       -1.4435653301
HA         -0.1165186563        3.1947099554       -1.5730287641
CB         -1.4720752601        1.8676801654       -2.5497408872
HB1        -1.8497557876        0.8496602795       -2.4478465147
HB2        -2.3059507780        2.5672030493       -2.4779604197
HB3        -1.0026790930        1.9823432373       -3.5276085397
C          -1.0514561711        2.0819961655       -0.0185394487
O          -2.1974635642        2.4789491473        0.1931607415
N          -0.3280705836        1.5295903442        0.9655591369
H           0.6251743485        1.2424934303        0.7753858555
CA         -0.8247140665        1.3622813115        2.3344042464
HA         -1.3180779118        2.2890245472        2.6324799904
CB          0.3674440027        1.1629686517        3.2804146295
HB1         1.0756052393        1.9849386740        3.1672409988
HB2         0.0143627532        1.1373116867        4.3116727593
HB3         0.8717097653        0.2218383165        3.0608008406
C          -1.8692229675        0.2286538545        2.4325972801
O          -1.5315284944       -0.9354100703        2.6584444905
N          -3.1458681268        0.5712776470        2.2271589323
H          -3.3180954020        1.5205317715        1.9173078731
CH3        -4.2813385120       -0.3450041521        2.3125369063
HH31       -4.1987512059       -0.9551092088        3.2144854991
HH32       -5.2142908614        0.2195173177        2.3477774841
HH33       -4.2939721593       -1.0027345546        1.4424163433
          52
Energy of minimum      7=    -13.23755131     first found at step       94 after                48981 function calls
HH31       -3.5530682197        1.0385713492       -0.7933408045
CH3        -4.0445564691        0.8095305238        0.1502924408
HH32       -4.5271804989        1.7060123330        0.5344179908
HH33       -4.7877951556        0.0282193934       -0.0015174929
C          -3.0211385473        0.3323903380        1.1526461671
O          -3.1960660710       -0.7237029133        1.7468648437
N          -1.9558062593        1.1143684672        1.3254932285
H          -1.9002307432        1.9169219081        0.7075017987
CA         -0.7907904686        0.8984822755        2.2006458053
HA         -0.1225532272        1.7408936203        2.0232685737
CB         -1.2252263379        1.0031683644        3.6694078661
HB1        -0.3451518263        0.9731299268        4.3129801765
HB2        -1.8807747245        0.1706310490        3.9285074782
HB3        -1.7538865619        1.9424121677        3.8356312790
C           0.0683255252       -0.3561433616        1.9194421930
O           1.2917375664       -0.2864097568        2.0328965095
N          -0.5222101240       -1.4780671174        1.5012124814
H          -1.5365504585       -1.4856738087        1.4764841487
CA          0.1770503954       -2.6933370151        1.0837368442
HA          0.9447864590       -2.9275691116        1.8230286843
CB         -0.8345758833       -3.8478592277        1.0726587574
HB1        -1.2609769495       -3.9775466028        2.0682289136
HB2        -1.6375570060       -3.6366978495        0.3642420467
HB3        -0.3346859218       -4.7708076055        0.7767460250
C           0.8786896587       -2.4802625631       -0.2738843939
O           0.3422538414       -2.7998028830       -1.3334689910
N           2.0478650556       -1.8358693294       -0.2528229567
H           2.3619717759       -1.4903463147        0.6463313972
CA          2.7809801130       -1.3824066201       -1.4395733261
HA          2.6959543137       -2.1523860440       -2.2083878427
CB          4.2659666303       -1.2562067683       -1.0693528448
HB1         4.3963710284       -0.4869262256       -0.3066353246
HB2         4.6378776616       -2.2089858784       -0.6908001541
HB3         4.8421093585       -0.9795310992       -1.9534082842
C           2.1721398712       -0.0892665057       -2.0358616164
O           2.8734117316        0.8835495302       -2.3104037934
N           0.8418812549       -0.0396996964       -2.1552610103
H           0.3341811334       -0.8926602599       -1.9502212653
CA          0.0590468506        1.1336818697       -2.5517350077
HA          0.5758106566        1.6215135807       -3.3800108173
CB         -1.2960307397        0.6381191791       -3.0779545917
HB1        -1.1420658507       -0.0397237593       -3.9185799372
HB2        -1.8338881888        0.1124422693       -2.2881184391
HB3        -1.8931211690        1.4867182676       -3.4144741436
C          -0.0537275513        2.1860645483       -1.4194662617
O          -1.1521522184        2.5536260570       -0.9986549759
N           1.0914099438        2.6316641361       -0.8874139665
H           1.9479375243        2.2614601166       -1.2899374669
CH3         1.2158192138        3.5978051010        0.2037604790
HH31        1.6163157033        3.1024880837        1.0898234660
HH32        1.8962565669        4.3980304595       -0.0915490570
HH33        0.2456173377        4.0359934020        0.4465851710
          52
Energy of minimum      8=    -13.02681197     first found at step      484 after               251363 function calls
HH31       -2.4913740388        0.8409253402       -0.0202676640
CH3        -2.9561424970       -0.1238277271        0.1693684657
HH32       -3.7403251074       -0.3018908956       -0.5646422931
HH33       -3.3844749646       -0.1339652522        1.1704668141
C          -1.9132741374       -1.2077420095        0.0476072534
O          -1.7477202118       -1.7758674977       -1.0269664540
N          -1.1881154990       -1.4879117029        1.1283350892
H          -1.3120750073       -0.9069617413        1.9511214681
CA         -0.1606245376       -2.5304295374        1.1751947303
HA         -0.6042914487       -3.4731840506        0.8520218271
CB          0.2926995070       -2.6935659284        2.6320915787
HB1        -0.5553729232       -2.9782922776        3.2559390857
HB2         1.0566925625       -3.4692292876        2.6944553221
HB3         0.7097182564       -1.7549431668        3.0020627268
C           1.0056031406       -2.1929423000        0.2252365356
O           1.8342510483       -1.3396928746        0.5341790053
N           1.0207999911       -2.8064568848       -0.9653726500
H           0.2711105034       -3.4525494829       -1.1587560956
CA          1.8580839023       -2.3921708550       -2.1025804369
HA          1.4739897230       -2.9160402519       -2.9780467996
CB          3.2993056288       -2.8853951289       -1.8946572704
HB1         3.3038286236       -3.9572417204       -1.6956115377
HB2         3.8869162504       -2.6891673916       -2.7924226223
HB3         3.7572647762       -2.3595192003       -1.0557304333
C           1.7325904718       -0.8842172900       -2.4465216731
O           2.6933836005       -0.2473599261       -2.8687420290
N           0.5463556089       -0.3038682512       -2.2248061969
H          -0.2137528052       -0.8961447783       -1.9103679773
CA          0.2612966786        1.1300318539       -2.3551325739
HA          1.0635592454        1.5937004202       -2.9316621518
CB         -1.0333665309        1.2837006055       -3.1663738112
HB1        -1.8717419772        0.8508975843       -2.6196120586
HB2        -0.9300215030        0.7788393932       -4.1275840497
HB3        -1.2324258304        2.3410002320       -3.3463795500
C           0.2257602360        1.8723863413       -0.9953948064
O          -0.3820019015        2.9359440028       -0.8838830857
N           0.8350034505        1.2949875259        0.0480122847
H           1.3440919414        0.4374201951       -0.1354385508
CA          0.7899896780        1.7008684373        1.4578476384
HA          1.2834631564        0.9020980896        2.0141613124
CB          1.6505537065        2.9547916499        1.6768250682
HB1         1.6833628803        3.1948959130        2.7400722528
HB2         1.2356238598        3.8030085856        1.1312352881
HB3         2.6662394968        2.7688439293        1.3252179598
C          -0.6278182927        1.7870492848        2.0641859571
O          -1.0285112577        0.8915157371        2.8089231632
N          -1.3972983505        2.8294820416        1.7330073202
H          -1.0374363564        3.4409377574        1.0074620518
CH3        -2.7381140426        3.0841542435        2.2550743585
HH31       -3.0507461351        4.0973455562        1.9983198196
HH32       -2.7395843903        2.9734878277        3.3413527436
HH33       -3.4449281782        2.3722648633        1.8271756507
          52
Energy of minimum      9=    -13.02674285     first found at step      468 after               244619 function calls
HH31       -1.8374655326       -1.4996470770       -1.1464878461
CH3        -1.4388912237       -2.4613347491       -0.8318966675
HH32       -2.1125136988       -2.9192709521       -0.1093939166
HH33       -1.3347654181       -3.1136581381       -1.6974085663
C          -0.0816636107       -2.2546954659       -0.2053809399
O           0.9295335982       -2.3699779353       -0.8902625662
N          -0.0430827328       -1.9271234779        1.0844371852
H          -0.9220265923       -1.7499514593        1.5597092928
CA          1.1954818549       -1.7266258160        1.8399223264
HA          1.8190390319       -2.6150730619        1.7308064518
CB          0.8346594004       -1.5791774130        3.3240944307
HB1         0.3259827276       -2.4780688885        3.6744083699
HB2         1.7426055425       -1.4327721345        3.9101223490
HB3         0.1784462696       -0.7184087956        3.4664430248
C           1.9791139337       -0.5153082780        1.2966716823
O           1.6180710002        0.6295035162        1.5596148123
N           3.0037678813       -0.7703382033        0.4725146940
H           3.1974936439       -1.7382916799        0.2665210745
CA          3.6591445357        0.2388842189       -0.3747544649
HA          4.2713971914       -0.3080434383       -1.0919896072
CB          4.6257917753        1.0819021902        0.4729110142
HB1         5.2021846422        1.7421770872       -0.1763814401
HB2         5.3120311778        0.4322841574        1.0165709451
HB3         4.0658925568        1.6921253141        1.1829874423
C           2.6657336147        1.0626221727       -1.2364413702
O           2.8761141407        2.2446807176       -1.4922638826
N           1.5554079716        0.4397136734       -1.6514846522