          52
Energy of minimum      1=    -15.33241091     first found at step      623 after               317738 function calls
HH31       -1.9485676200        1.3049733345       -2.5755630349
CH3        -1.7891009029        1.5639647200       -1.5300843310
HH32       -2.2287891973        0.8000024996       -0.8934046807
HH33       -2.2501795982        2.5271619040       -1.3177326387
C          -0.3091461548        1.6533767215       -1.2477119421
O           0.1115367721        2.4894201622       -0.4548663147
N           0.4889906106        0.7862593304       -1.8658271981
H           0.0587260621        0.0474694204       -2.4131758263
CA          1.9454231118        0.7720372824       -1.7185089756
HA          2.3255596993        1.7761969155       -1.9119717783
CB          2.5314056241       -0.1674955989       -2.7806897495
HB1         3.6178562342       -0.1919167838       -2.6902980755
HB2         2.2650030076        0.1865304033       -3.7772265448
HB3         2.1418130984       -1.1776071660       -2.6446656133
C           2.3424686505        0.3755443193       -0.2834707095
O           2.2893395874       -0.7946903650        0.0866959049
N           2.6495726438        1.3633068697        0.5633788905
H           2.5953258210        2.3128475085        0.2275725166
CA          2.7978495490        1.1532733587        2.0083919820
HA          3.5695600784        0.3996591308        2.1761261123
CB          3.2607072951        2.4732315481        2.6366661957
HB1         2.5056104107        3.2463909848        2.4866342565
HB2         3.4136872652        2.3303356802        3.7075630844
HB3         4.2021120185        2.7903844814        2.1864731224
C           1.5022022002        0.6334815086        2.6750071800
O           1.5641410452       -0.0131204320        3.7159155388
N           0.3408844623        0.8743036733        2.0538147573
H           0.3641566819        1.4695487570        1.2343045048
CA         -0.9608811554        0.3281900232        2.4439011564
HA         -0.8758782587       -0.0900259850        3.4482825364
CB         -1.9590407473        1.4926727462        2.5177431327
HB1        -1.5887885566        2.2540087139        3.2054100128
HB2        -2.9215979474        1.1310987411        2.8818538151
HB3        -2.0940806938        1.9343273537        1.5300393465
C          -1.4415699729       -0.8330072138        1.5376770710
O          -2.6313559323       -1.1491950086        1.5169857502
N          -0.5580229991       -1.4548316753        0.7446000527
H           0.4190694476       -1.1869477318        0.7819947734
CA         -0.9269544552       -2.5384375188       -0.1696191075
HA         -1.6035795826       -3.2131539483        0.3575835552
CB          0.3268129531       -3.3491717216       -0.5239553552
HB1         1.0248629089       -2.7363856192       -1.0935485758
HB2         0.0451100882       -4.2113708252       -1.1288698304
HB3         0.8157264663       -3.6973401854        0.3867829322
C          -1.6740171845       -2.0054067460       -1.4107028674
O          -1.0625764707       -1.5935650302       -2.3988137728
N          -3.0099865230       -1.9867297150       -1.3409397979
H          -3.4231048493       -2.2231752096       -0.4474489746
CH3        -3.8964779957       -1.5480957427       -2.4170490393
HH31       -3.5470986229       -1.9460714457       -3.3721812443
HH32       -4.9112718231       -1.9036800331       -2.2326742259
HH33       -3.9034465497       -0.4585763912       -2.4703979767
          52
Energy of minimum      2=    -14.30641442     first found at step      630 after               321793 function calls
HH31       -3.3367746512        1.0928469962       -0.5451028029
CH3        -2.7694345988        0.9120162731        0.3664832235
HH32       -3.3313347000        1.2758212689        1.2251207261
HH33       -2.5837980619       -0.1537836283        0.4761646594
C          -1.4489183074        1.6395666887        0.2982436041
O          -0.9544516691        2.1022900806        1.3211218795
N          -0.8536069635        1.7277938494       -0.8889139067
H          -1.2584732410        1.2152249395       -1.6658760337
CA          0.4168351485        2.4213217442       -1.1091177787
HA          0.3347457268        3.4341418254       -0.7122224845
CB          0.6610984129        2.5233570671       -2.6203353897
HB1        -0.1488198871        3.0822543294       -3.0904837372
HB2         0.7095435737        1.5262594947       -3.0608185319
HB3         1.6040338885        3.0386285401       -2.8060488586
C           1.5585165610        1.7009541966       -0.3667511075
O           1.9931417035        0.6289427515       -0.7801591406
N           1.9815594344        2.2464049122        0.7807088276
H           1.5344979852        3.0992236282        1.0793473125
CA          2.8262366705        1.5500323395        1.7644392057
HA          2.7870249134        2.1399241322        2.6803108260
CB          4.2898785299        1.5661348017        1.2942985165
HB1         4.6002548839        2.5866255667        1.0690546679
HB2         4.9319026395        1.1659585280        2.0800771890
HB3         4.4025487194        0.9481581815        0.4023986159
C           2.2932599633        0.1478000538        2.1643314069
O           3.0625787487       -0.7461274779        2.5062155685
N           0.9700366765       -0.0477624293        2.0963725726
H           0.3920126771        0.7492390365        1.8574255508
CA          0.2809304987       -1.3180542242        2.3412323788
HA          0.9895835174       -2.0179818668        2.7870035736
CB         -0.8219144140       -1.0632440895        3.3790048758
HB1        -0.3889347777       -0.6256825925        4.2793449431
HB2        -1.3031748805       -2.0052935178        3.6450425944
HB3        -1.5701632578       -0.3828683904        2.9711141892
C          -0.2399380831       -2.0042403390        1.0533875346
O          -1.1308882433       -2.8516959932        1.1194472011
N           0.2563975033       -1.6303031592       -0.1328528665
H           0.9931124578       -0.9333135620       -0.1644370082
CA         -0.1949836646       -2.1929226806       -1.4074079268
HA         -0.2913453933       -3.2733755226       -1.2879793306
CB          0.8831230971       -1.9541128329       -2.4730966087
HB1         1.8365799911       -2.3633797385       -2.1367804690
HB2         0.9983394166       -0.8870495105       -2.6615591538
HB3         0.5928848045       -2.4443317702       -3.4026590615
C          -1.5791593264       -1.6431140949       -1.8121289826
O          -1.6924741681       -0.5796963771       -2.4256724983
N          -2.6406754262       -2.3653132820       -1.4354686046
H          -2.4616726161       -3.1550665564       -0.8278978158
CH3        -4.0301048771       -2.0345592321       -1.7462109702
HH31       -4.1064199604       -1.6753888401       -2.7747850088
HH32       -4.6585587629       -2.9188071514       -1.6305484100
HH33       -4.3846382118       -1.2534523662       -1.0723771562
          52
Energy of minimum      3=    -14.15030460     first found at step      631 after               322319 function calls
HH31       -2.2508048751        2.5175979179       -1.3960644771
CH3        -1.5790849852        1.7057642266       -1.6704348613
HH32       -1.4325388375        1.7031163233       -2.7493326693
HH33       -2.0074343573        0.7567222244       -1.3566681573
C          -0.2543982588        1.9069099863       -0.9759336066
O          -0.2015107007        2.5628535772        0.0592097151
N           0.8162867758        1.3310471450       -1.5181372884
H           0.6781076112        0.7228075010       -2.3187290787
CA          2.1757411679        1.4642678273       -0.9903307634
HA          2.4056713992        2.5251574816       -0.8811860051
CB          3.1487141345        0.8720379130       -2.0187511439
HB1         3.0605398388        1.4066490118       -2.9652771613
HB2         2.9245989633       -0.1838328807       -2.1821822257
HB3         4.1716607876        0.9641116049       -1.6522137782
C           2.2987531804        0.8006394293        0.3958811898
O           2.4271160692       -0.4169633410        0.5039693792
N           2.1694920672        1.5903292593        1.4672203361
H           1.9817397333        2.5697257622        1.3138984184
CA          2.0201417146        1.0695823987        2.8311562348
HA          2.8673084572        0.4179850178        3.0537485725
CB          2.0503521209        2.2564320102        3.8014749088
HB1         2.9876047639        2.8033425720        3.6918388445
HB2         1.2120757803        2.9262022358        3.6035660371
HB3         1.9759747668        1.8883638305        4.8259843704
C           0.7367082540        0.2259211802        3.0087267062
O           0.7066927092       -0.6816475199        3.8331617988
N          -0.2953805977        0.4812844375        2.1952599690
H          -0.2169883967        1.2780441967        1.5736411308
CA         -1.4967778597       -0.3498566450        2.0655550510
HA         -1.5776270529       -0.9858074735        2.9488088602
CB         -2.7187996949        0.5796712626        2.0559564791
HB1        -2.6919814687        1.2256476478        1.1779862196
HB2        -2.7224659414        1.1950270311        2.9564404658
HB3        -3.6335490836       -0.0141740724        2.0343139525
C          -1.4426055527       -1.3069969736        0.8477380895
O          -2.4799386063       -1.7740392645        0.3804848141
N          -0.2444538272       -1.5650870420        0.3051858485
H           0.5656600339       -1.1777640053        0.7741596285
CA          0.0448042723       -2.2858112904       -0.9409025909
HA          1.1143445007       -2.1600050716       -1.1178676559
CB         -0.1699468048       -3.7942498277       -0.7429533198
HB1         0.4335900245       -4.1441528448        0.0955792677
HB2        -1.2197600958       -4.0071735236       -0.5383164506
HB3         0.1341076159       -4.3283136378       -1.6438287330
C          -0.6349416743       -1.7063375328       -2.2010660625
O           0.0274970883       -1.0466515596       -3.0028033952
N          -1.9454353833       -1.9130313036       -2.3680668451
H          -2.4350417873       -2.3462786174       -1.5918124546
CH3        -2.7243432240       -1.4734268095       -3.5234005184
HH31       -3.7822379099       -1.6856953705       -3.3617634875
HH32       -2.5930953920       -0.4010726035       -3.6753471255
HH33       -2.3841414631       -1.9988718014       -4.4175764329
          52
Energy of minimum      4=    -13.87186445     first found at step      589 after               299910 function calls
HH31       -1.3275910730        1.9873300781       -3.5047693132
CH3        -1.8963777912        2.7625221275       -2.9941034151
HH32       -1.6721702839        3.7278183661       -3.4433428931
HH33       -2.9619745916        2.5556195062       -3.0782749457
C          -1.5146197915        2.8049399367       -1.5334580931
O          -2.3655411370        3.0154205079       -0.6768535305
N          -0.2370537021        2.5883987982       -1.2354126873
H           0.3753126262        2.2787448425       -1.9802599643
CA          0.3346801257        2.7311498358        0.1048575191
HA         -0.1746572185        3.5630152664        0.5946760801
CB          1.8080672724        3.1377352297       -0.0358364867
HB1         1.8806826446        4.0786525352       -0.5825164844
HB2         2.3592690006        2.3705995430       -0.5760252382
HB3         2.2509376897        3.2691075397        0.9522292861
C           0.0891193660        1.4965805697        1.0028481888
O           1.0245541890        0.8622130401        1.4944452242
N          -1.1813420830        1.1382752154        1.2105595334
H          -1.8968402582        1.6771057232        0.7328956713
CA         -1.6175237366        0.0944982035        2.1420170531
HA         -1.2163483362        0.3269332470        3.1294312903
CB         -3.1482455436        0.1512584984        2.2355931268
HB1        -3.5010587053       -0.6009775175        2.9420120568
HB2        -3.5904305007       -0.0474158582        1.2575866852
HB3        -3.4649311476        1.1371203001        2.5784990294
C          -1.1026594381       -1.3035449088        1.7390426080
O          -1.6565970373       -1.9550638163        0.8561875262
N          -0.0045429018       -1.7496126857        2.3595481495
H           0.4455143160       -1.1396754356        3.0242485552
CA          0.7025108178       -2.9734401578        1.9655663956
HA         -0.0031898121       -3.8062107307        1.9795663910
CB          1.7985838502       -3.2467878115        3.0024714617
HB1         2.5221455610       -2.4302145242        3.0096802013
HB2         1.3560076453       -3.3509204588        3.9938446835
HB3         2.3137073269       -4.1745471164        2.7483938288
C           1.2831335532       -2.8938011906        0.5358594166
O           1.4227732187       -3.9163146333       -0.1277149802
N           1.5578958849       -1.6810041941        0.0420407732
H           1.4448133413       -0.8862741055        0.6607600197
CA          1.8513474639       -1.3861065518       -1.3619951329
HA          1.9902834727       -2.3274405662       -1.8961891904
CB          3.1836148671       -0.6287970003       -1.4383584547
HB1         3.1205415302        0.2973981530       -0.8712079893
HB2         3.4200858190       -0.4009114708       -2.4784463220
HB3         3.9803902986       -1.2468124621       -1.0229473100
C           0.6555270473       -0.6847114167       -2.0497204858
O           0.8167033338        0.3074054103       -2.7633267007
N          -0.5629528506       -1.1725906090       -1.7788215224
H          -0.6220166127       -1.9364541395       -1.1152341847
CH3        -1.8244362205       -0.6919307811       -2.3344101688
HH31       -1.6769120526       -0.3353394347       -3.3551425864
HH32       -2.5502250774       -1.5066718512       -2.3462811209
HH33       -2.2179643589        0.1137289547       -1.7142115541
          52
Energy of minimum      5=    -13.85380753     first found at step      633 after               323506 function calls
HH31       -1.4045962863        0.0761861276       -3.1754788795
CH3        -1.5545027986        0.5877150309       -2.2260007367
HH32       -2.1849385933        1.4622920904       -2.3786291076
HH33       -2.0305421857       -0.0863539677       -1.5177067970
C          -0.2244784303        1.0314770414       -1.6672709975
O          -0.1569021182        2.0808372124       -1.0379979049
N           0.8208245955        0.2322849369       -1.8798955512
H           0.6258799442       -0.6579367348       -2.3268922932
CA          2.1910001750        0.4370802780       -1.3909296709
HA          2.7254774887       -0.4960239094       -1.5761338677
CB          2.9020268417        1.5101656646       -2.2310644467
HB1         2.3951203319        2.4708875637       -2.1323591580
HB2         2.8980643075        1.2154298077       -3.2811935780
HB3         3.9356052973        1.6123704220       -1.8980087785
C           2.2729859412        0.6458305255        0.1351719731
O           2.3934185014       -0.3278668546        0.8726170107
N           2.1243857189        1.8791283985        0.6295492021
H           1.9284172729        2.6240507836       -0.0228982959
CA          1.9477448071        2.1509192272        2.0612144115
HA          2.7963284898        1.7332925770        2.6061501995
CB          1.9401291868        3.6712903490        2.2596097831
HB1         1.0992991570        4.1157827836        1.7248316403
HB2         1.8441415079        3.8974035025        3.3227087315
HB3         2.8732414911        4.0994306628        1.8915445934
C           0.6694450665        1.4985458670        2.6375048563
O           0.6087307983        1.2058154066        3.8274897554
N          -0.3251725018        1.2286339940        1.7839568534
H          -0.2245021537        1.5711106329        0.8355206061
CA         -1.5367827430        0.4670845870        2.0942942978
HA         -1.5877429589        0.3158645940        3.1738730631
CB         -2.7468681906        1.3222742299        1.6919564866
HB1        -2.7495515781        1.4830116186        0.6132786752
HB2        -3.6689680808        0.8158492102        1.9802247198
HB3        -2.7037212734        2.2862726295        2.2004355439
C          -1.5520065679       -0.9468511143        1.4612875393
O          -2.6145992430       -1.5539294257        1.3268468182
N          -0.4029427753       -1.4764471501        1.0184903223
H           0.4633921512       -0.9733172355        1.1720823090
CA         -0.3185245857       -2.7843666494        0.3622859663
HA         -0.9250366767       -3.4902681961        0.9323352195
CB          1.1312239124       -3.2846803860        0.4240720241
HB1         1.1842019132       -4.2989663058        0.0275428545
HB2         1.4815785389       -3.2878663182        1.4571145287
HB3         1.7790284430       -2.6424999036       -0.1727478817
C          -0.8823152248       -2.7439661827       -1.0751631172
O          -0.1621240518       -2.4714351625       -2.0380446602
N          -2.1908465573       -2.9856252684       -1.2121504078
H          -2.7301550489       -3.0685006675       -0.3583170773
CH3        -2.9037122297       -3.0295915794       -2.4873148202
HH31       -2.3368991567       -3.6215565966       -3.2090214743
HH32       -3.0260167706       -2.0190500562       -2.8793940303
HH33       -3.8872430984       -3.4812180903       -2.3493764522
          52
Energy of minimum      6=    -13.31090010     first found at step      599 after               304825 function calls
HH31       -1.8190933450        1.7002483662       -3.3918607608
CH3        -2.0452319220        2.6383837960       -2.8880862380
HH32       -1.7583927775        3.4704999842       -3.5279037114
HH33       -3.1107469263        2.6927741336       -2.6702333987
C          -1.2706488699        2.7276195170       -1.5945794724
O          -1.8136668953        3.1666859658       -0.5887978034
N          -0.0058672535        2.3102486403       -1.6342844074
H           0.2802713569        1.8634414598       -2.4966884212
CA          0.9848387152        2.2913922310       -0.5465188085
HA          1.8887597856        1.8588855943       -0.9743097001
CB          1.3526810085        3.7314974058       -0.1611616927
HB1         1.6558749218        4.2886306330       -1.0483614414
HB2         2.1806532750        3.7190992948        0.5486740793
HB3         0.4985864467        4.2285576638        0.3008158872
C           0.6589070950        1.4106072224        0.6818435715
O           1.5519588916        0.7244975153        1.1809010135
N          -0.5872019695        1.3700348798        1.1589724670
H          -1.2776774107        1.9614248946        0.7078727257
CA         -1.0145256393        0.5759400778        2.3126289407
HA         -0.3759050789        0.8252641918        3.1611671542
CB         -2.4503198484        0.9843846501        2.6679343115
HB1        -2.7886900747        0.4192461109        3.5370160893
HB2        -2.4877759136        2.0497536185        2.8991393179
HB3        -3.1169451587        0.7767216274        1.8289321240
C          -0.8779037564       -0.9358940831        2.0363779684
O          -1.7156818943       -1.5380848856        1.3685358797
N           0.2215677272       -1.5422337826        2.4978733987
H           0.9050121368       -0.9804611839        2.9817646978
CA          0.5990612585       -2.9085366983        2.1196069712
HA         -0.2332633583       -3.5786432298        2.3434763018
CB          1.8036688808       -3.3263497173        2.9713431622
HB1         2.0791457310       -4.3539696940        2.7290613385
HB2         1.5475844669       -3.2717152427        4.0301440986
HB3         2.6539496622       -2.6737221580        2.7677728663
C           0.8986679689       -3.0404721179        0.6094034594
O           0.6647127751       -4.0928707200        0.0243025630
N           1.3449930100       -1.9557624963       -0.0347894692
H           1.5296846726       -1.1264320828        0.5171601423
CA          1.4400612759       -1.8172654785       -1.4905319080
HA          1.4531331414       -2.8149271106       -1.9327348823
CB          2.7830265909       -1.1559329599       -1.8321286564
HB1         2.8931711825       -1.0849490238       -2.9150221431
HB2         2.8317263154       -0.1570586172       -1.4011159738
HB3         3.6011751328       -1.7578520156       -1.4349083146
C           0.2004829285       -1.1035638560       -2.0847981293
O           0.3194208959       -0.2589103338       -2.9748157958
N          -0.9895100534       -1.3919324591       -1.5405034325
H          -1.0041156243       -2.0510467951       -0.7713230921
CH3        -2.2731816294       -0.8221695684       -1.9397319938
HH31       -2.4471680965        0.1085952379       -1.3987184696
HH32       -3.0739490714       -1.5217281263       -1.6944118150
HH33       -2.2853146823       -0.6319502757       -3.0144005982
          52
Energy of minimum      7=    -13.02681197     first found at step      662 after               337034 function calls
HH31       -1.2600074250        1.7457597673       -2.8648431842
CH3        -1.7040281948        1.5067061269       -1.8997171453
HH32       -1.8487193505        0.4318406653       -1.8194128962
HH33       -2.6635214878        2.0123862056       -1.8044232234
C          -0.7927930879        1.9675141961       -0.7886020004
O          -1.2730046133        2.3599901778        0.2698132335
N           0.5195818872        1.9034266817       -1.0028156077
H           0.8432066605        1.4729274981       -1.8629224105
CA          1.5278496272        2.3397531112       -0.0344188057
HA          1.3148273116        3.3707805314        0.2513627072
CB          2.8992301941        2.3111972734       -0.7222883494
HB1         2.8970785346        2.9794141933       -1.5842414626
HB2         3.6686266163        2.6368452368       -0.0214240112
HB3         3.1299823703        1.2976907720       -1.0559857924
C           1.4824095932        1.4659049026        1.2347264746
O           1.9560796584        0.3320047352        1.2280585564
N           0.8392981711        1.9659537186        2.2979951170
H           0.4323861692        2.8832907206        2.1990881685
CA          0.4294642924        1.1740812918        3.4688465514
HA         -0.2697024013        1.7921311149        4.0323970690
CB          1.6403495734        0.9357784360        4.3856839801
HB1         2.3594970843        0.2801257395        3.8927167325
HB2         1.3116439528        0.4605493368        5.3108240310
HB3         2.1211361490        1.8842235341        4.6260814517
C          -0.3674030989       -0.1059425854        3.1020913832
O          -0.2616320850       -1.1320055543        3.7676648545
N          -1.1398848993       -0.0524331698        2.0096059076
H          -1.2096985697        0.8367290828        1.5280000343
CA         -1.8623939145       -1.1859528447        1.4201765977
HA         -1.9117137193       -1.9890058577        2.1575188047
CB         -3.3026422780       -0.7344064622        1.1379182737
HB1        -3.3069124090        0.0576075155        0.3883611493
HB2        -3.7614396545       -0.3651900428        2.0558912423
HB3        -3.8879521084       -1.5778352087        0.7692049443
C          -1.1524783571       -1.7852216350        0.1799602225
O          -1.7903627375       -2.4333682935       -0.6482752524
N           0.1536834074       -1.5337126039        0.0252033056
H           0.6136078285       -1.0227140130        0.7705871004
CA          0.9988641982       -1.8304622744       -1.1375565026
HA          1.9557324182       -1.3430221227       -0.9430305265
CB          1.3029431264       -3.3351801113       -1.2024041720
HB1         0.3876644243       -3.9029142448       -1.3734299192
HB2         1.7518471460       -3.6597178597       -0.2627328614
HB3         2.0031489541       -3.5322466860       -2.0148681096
C           0.5087108732       -1.2213110560       -2.4694488598
O           1.0661851151       -0.2219604268       -2.9251784631
N          -0.5387860965       -1.7871618907       -3.0785529506
H          -1.0191549692       -2.5162878827       -2.5614304170
CH3        -1.0931614243       -1.3652109255       -4.3630076864
HH31       -1.7907079505       -2.1184070809       -4.7322538846
HH32       -0.2880515189       -1.2362516502       -5.0892428056
HH33       -1.6188829863       -0.4166900826       -4.2472705933
          52
Energy of minimum      8=    -13.02674285     first found at step      655 after               333452 function calls
HH31       -1.5702463736        1.0284011259       -1.8483435813
CH3        -1.2457554874        2.0605547038       -1.7386307257
HH32       -2.1142174005        2.7036441147       -1.6056316552
HH33       -0.6964847049        2.3690289762       -2.6266781592
C          -0.3581477193        2.1748803905       -0.5235707814
O          -0.8415582171        2.5012928044        0.5556149805
N           0.9329455094        1.8879853319       -0.6758605993
H           1.2404029320        1.5270681453       -1.5730921881
CA          1.9236424055        1.9840638684        0.3985173380
HA          1.8810614605        2.9875114118        0.8243673462
CB          3.3169453657        1.7867247179       -0.2134179857
HB1         3.5058217708        2.5550067188       -0.9641151105
HB2         3.3840548204        0.8035369228       -0.6831407731
HB3         4.0746963783        1.8583043296        0.5675552461
C           1.6182948287        0.9694460565        1.5182513525
O           1.8780899966       -0.2221443671        1.3675733430
N           0.9923201169        1.4324900508        2.6081764200
H           0.7671925529        2.4152955771        2.6257222896
CA          0.3519027845        0.5804737339        3.6229903726
HA         -0.2669915853        1.2374692727        4.2343299249
CB          1.4208302212       -0.0087659181        4.5577704218
HB1         2.0445506676        0.7879822862        4.9635527929
HB2         2.0467521699       -0.7158334348        4.0115605942
HB3         0.9372313674       -0.5348455300        5.3818728198
C          -0.6314474846       -0.4606087922        3.0254259847
O          -0.7674258699       -1.5699293796        3.5332500076
N          -1.2905461658       -0.1101139444        1.9137420218
H          -1.1589642800        0.8338788089        1.5688033612
CA         -2.1561816291       -0.9923313065        1.1221179986
HA         -2.4116882064       -1.8639735914        1.7270661760
CB         -3.4616931598       -0.2381011153        0.8311874957
HB1        -4.1585658559       -0.8950740249        0.3090148119
HB2        -3.2596257327        0.6343516927        0.2089785576
HB3        -3.9195597601        0.0841122874        1.7671514575
C          -1.4674450827       -1.5415875391       -0.1527158338
O          -2.1423407085       -1.9367138306       -1.1021346310
N          -0.1290826468       -1.5257830182       -0.1961685130
H           0.3530406121       -1.2192089102        0.6415659251
CA          0.7411905250       -1.8155462473       -1.3421300883
HA          1.7513620800       -1.5523166412       -1.0238592591
CB          0.7709673218       -3.3269423271       -1.6170620227
HB1         1.0739248365       -3.8583722568       -0.7139454934
HB2         1.4885854052       -3.5404717379       -2.4099347308
HB3        -0.2148724632       -3.6792038763       -1.9225734636
C           0.4811680360       -0.9457986245       -2.5915561636
O           1.2485999889       -0.0212299632       -2.8623491057
N          -0.6013140984       -1.2068243514       -3.3320259414
H          -1.2478918252       -1.8930094374       -2.9565275420
CH3        -0.9617085036       -0.5143858148       -4.5671121911
HH31       -0.9697282100        0.5639614811       -4.4017794874
HH32       -0.2307998021       -0.7447978606       -5.3442621261
HH33       -1.9512911812       -0.8335509683       -4.8975408874
          52
Energy of minimum      9=    -12.94781157     first found at step      466 after               238202 function calls
HH31       -2.0315849182        2.3209357446       -4.4152714128
CH3        -2.2507494402        1.5602697216       -3.6687646053
HH32       -1.7045550109        0.6502958700       -3.9111704422
HH33       -3.3201716119        1.3564295450       -3.6538166246
C          -1.8244348371        2.0699374327       -2.3125712302
O          -2.6569744885        2.4994858297       -1.5220771204
N          -0.5280412040        2.0089214255       -2.0233135394
H           0.0746607576        1.5111848733       -2.6669136253
CA          0.0765183782        2.5725110138       -0.8143052420
HA         -0.4565994524        3.4942956650       -0.5745273669
CB          1.5247934209        2.9685254305       -1.1340665683
HB1         1.9851916991        3.4219997622       -0.2553794050
HB2         1.5391680377        3.6902301563       -1.9516340727
HB3         2.0987522852        2.0902617330       -1.4239094592
C          -0.0798809663        1.6539703098        0.4194734427
O           0.9054748892        1.2140623482        1.0125902954
N          -1.3299414463        1.3574315193        0.7935076156
H          -2.0670442717        1.7429483231        0.2109658492
CA         -1.7493288395        0.5459472007        1.9455343194
HA         -2.8080255542        0.3283485209        1.7958998582
CB         -1.6660770417        1.3860366350        3.2300351560
HB1        -0.6355074169        1.6870894999        3.4225803975
HB2        -2.2815739767        2.2803981097        3.1242747498
HB3        -2.0354599411        0.8033648674        4.0749764244
C          -1.0739041870       -0.8399452906        2.0421361773
O          -1.6086796122       -1.8144785520        1.5201645250
N           0.1062356977       -0.9373522354        2.6651727282