          52
Energy of minimum      1=    -14.51727918     first found at step      130 after                68683 function calls
HH31       -3.0122179620        1.8717170744       -3.2232880201
CH3        -3.1746369206        1.3264902898       -2.2956475439
HH32       -2.8145845736        0.3065429450       -2.4102576305
HH33       -4.2363786984        1.3184949093       -2.0541071663
C          -2.4174543199        2.0106454231       -1.1830731035
O          -3.0217311524        2.5355448802       -0.2560981826
N          -1.0891205639        1.9888112196       -1.2527629513
H          -0.6723891790        1.4517075482       -2.0061016400
CA         -0.1850062327        2.6989241221       -0.3387952419
HA         -0.6296353050        3.6732841842       -0.1293101770
CB          1.1398348650        2.9489206937       -1.0732559719
HB1         1.7869817212        3.5771028801       -0.4596820713
HB2         1.6422057338        2.0000005849       -1.2591254486
HB3         0.9530657537        3.4549470911       -2.0211528622
C          -0.0086205882        2.0026770520        1.0334976326
O           1.1012136885        1.8983532842        1.5571520939
N          -1.0916180731        1.4658883131        1.6027233053
H          -1.9818080619        1.6306548104        1.1448342240
CA         -1.0925820598        0.6732847580        2.8335687074
HA         -0.4748679144        1.1819120820        3.5756811682
CB         -2.5297970107        0.6273062348        3.3716471820
HB1        -3.1874055259        0.1461355457        2.6456645175
HB2        -2.8874567187        1.6397126825        3.5637852315
HB3        -2.5546045873        0.0594018777        4.3024325677
C          -0.4775706575       -0.7235078809        2.5964185593
O          -1.1821354042       -1.7212541610        2.4557263580
N           0.8478122903       -0.7833082291        2.4440769653
H           1.3483445795        0.0989173931        2.4571391459
CA          1.6084121254       -1.9833615160        2.0758895410
HA          1.1762837777       -2.8329270732        2.6074315875
CB          3.0503943171       -1.8079097173        2.5739373278
HB1         3.5251535547       -0.9742116229        2.0542469960
HB2         3.6198580384       -2.7177295311        2.3790441605
HB3         3.0531911145       -1.6148269607        3.6473198669
C           1.5074622762       -2.3121792723        0.5648177245
O           2.4927242718       -2.6654714752       -0.0827502778
N           0.3219568460       -2.1293715115       -0.0238154695
H          -0.4580785513       -1.9041993083        0.5815558824
CA          0.0515277051       -2.2572014332       -1.4555939363
HA          0.5500370488       -3.1574098978       -1.8192285411
CB         -1.4602053407       -2.4620866516       -1.6302272951
HB1        -1.6974784406       -2.5658860317       -2.6897913029
HB2        -2.0030438972       -1.6085630364       -1.2230203211
HB3        -1.7740483076       -3.3664827470       -1.1072834004
C           0.6208616141       -1.0687899610       -2.2679222212
O          -0.1241683998       -0.2417343503       -2.7967212801
N           1.9541979538       -0.9694693924       -2.3319908042
H           2.4821650332       -1.6522297100       -1.7955869330
CH3         2.7050004873        0.0408860841       -3.0774208525
HH31        3.2118362858       -0.4273389735       -3.9225552440
HH32        3.4498334456        0.5008924350       -2.4260442567
HH33        2.0382899190        0.8182940461       -3.4559805981
          52
Energy of minimum      2=    -13.23755131     first found at step      187 after                97714 function calls
HH31       -3.1356693042        0.9150607329       -3.6085575922
CH3        -3.1416467153        0.4080001810       -2.6457430259
HH32       -4.1674554676        0.1944124991       -2.3491055476
HH33       -2.5793587705       -0.5207166706       -2.7217783308
C          -2.5030307220        1.3045539971       -1.6122437105
O          -3.1833292632        1.7755789914       -0.7098259691
N          -1.1960918959        1.5261370123       -1.7504850233
H          -0.7428598849        1.0061906472       -2.4943469722
CA         -0.3037706586        2.3218540353       -0.8900445146
HA          0.6938101861        2.2191354987       -1.3165910194
CB         -0.6658582290        3.8089227144       -1.0103566950
HB1         0.0733631914        4.4084410035       -0.4776764142
HB2        -0.6742850005        4.1067377735       -2.0594162520
HB3        -1.6494243234        3.9933809841       -0.5761130263
C          -0.1575946149        1.8591889673        0.5782248167
O           0.9421582915        1.9308289634        1.1258405027
N          -1.2096978533        1.3346603039        1.2109252278
H          -2.0986655689        1.3500203675        0.7219915428
CA         -1.1808526721        0.7479076588        2.5507092949
HA         -0.6412947511        1.4226350979        3.2173845557
CB         -2.6258845270        0.6403738735        3.0574156999
HB1        -3.0841711721        1.6298095295        3.0854702292
HB2        -3.2081561597       -0.0050471168        2.3974054455
HB3        -2.6316830324        0.2169885245        4.0624028882
C          -0.4333290245       -0.6018757536        2.5394446351
O          -1.0330373475       -1.6694909736        2.4248296427
N           0.9008200109       -0.5514104106        2.5519713360
H           1.3226840963        0.3690734041        2.5163631087
CA          1.7888990102       -1.7043658995        2.3690181964
HA          1.3575553940       -2.5552070031        2.8992875314
CB          3.1386848594       -1.3817988034        3.0264398092
HB1         3.7967174587       -2.2491522163        2.9576281503
HB2         3.6094574684       -0.5389147200        2.5180546636
HB3         2.9911587809       -1.1344491014        4.0783248636
C           1.9001285132       -2.1177436140        0.8806619399
O           2.9922428609       -2.3026869730        0.3453032995
N           0.7652574428       -2.1768040968        0.1771844462
H          -0.0978923217       -2.0543523621        0.6942149086
CA          0.6616827915       -2.3991844434       -1.2673448730
HA          1.3693375729       -3.1837111751       -1.5408552803
CB         -0.7508227284       -2.9256485233       -1.5612639520
HB1        -0.9269719199       -3.8463936304       -1.0035659044
HB2        -0.8516072602       -3.1346239995       -2.6271225409
HB3        -1.4944351425       -2.1829078453       -1.2699825675
C           1.0493875955       -1.1462384074       -2.0932208328
O           0.2593540447       -0.6408847629       -2.8927113229
N           2.2541035389       -0.6114827395       -1.8572666084
H           2.8311816372       -1.0892782327       -1.1706750181
CH3         2.8079161317        0.5809032339       -2.4984179131
HH31        2.8963470310        1.3849782062       -1.7659648957
HH32        2.1683051775        0.9129157260       -3.3187410343
HH33        3.7983232460        0.3556795471       -2.8970798982
          52
Energy of minimum      3=    -12.94649040     first found at step      145 after                76251 function calls
HH31       -2.6499754918        2.0750225394       -1.8533499195
CH3        -2.7178084306        3.0020897274       -1.2883051589
HH32       -2.3882871533        3.8295306993       -1.9135568044
HH33       -3.7462305132        3.1669902974       -0.9707703874
C          -1.8289869214        2.9206062548       -0.0707066463
O          -2.2847161852        3.1445518728        1.0443267993
N          -0.5598895974        2.5760638038       -0.2708067059
H          -0.2904714877        2.3157259902       -1.2139225459
CA          0.4763421202        2.5437937272        0.7681644451
HA          0.3090667199        3.3952919122        1.4299716333
CB          1.8394373205        2.7514259661        0.0928911793
HB1         1.8284999796        3.6679012256       -0.4981589843
HB2         2.0626041768        1.9037395990       -0.5541763962
HB3         2.6174899034        2.8304733729        0.8532812491
C           0.4079470611        1.2805649809        1.6603289880
O           1.4129471047        0.6020862178        1.8703309220
N          -0.7919011795        0.9474124509        2.1523835961
H          -1.5405976137        1.6039865708        1.9539494426
CA         -1.1747764273       -0.2946043410        2.8400864159
HA         -2.2566599540       -0.2480146614        2.9742798399
CB         -0.5732326183       -0.3300765639        4.2532926732
HB1        -0.8667157966        0.5658291554        4.8017572438
HB2        -0.9432623681       -1.2070678912        4.7856788176
HB3         0.5152472624       -0.3773715662        4.2045754873
C          -0.9262428676       -1.5772358587        2.0177399858
O          -1.8786865351       -2.2032058021        1.5600243761
N           0.3309907548       -1.9314032667        1.7429408240
H           1.0586318525       -1.2995745394        2.0606811644
CA          0.7335412795       -3.0298601106        0.8571262375
HA          0.0572215448       -3.8687389738        1.0295977528
CB          2.1451342259       -3.4783755457        1.2621816354
HB1         2.1595017245       -3.7561315746        2.3167189954
HB2         2.4414826680       -4.3428131178        0.6664653487
HB3         2.8561950762       -2.6686340890        1.0909820944
C           0.6043560788       -2.6590651646       -0.6419078212
O           1.4710560994       -2.9706231361       -1.4585286298
N          -0.4527195291       -1.9248339308       -1.0012678530
H          -1.1589604305       -1.7655156811       -0.2938578134
CA         -0.6799709775       -1.3490389305       -2.3263569469
HA         -0.4424716062       -2.1069862227       -3.0748470255
CB         -2.1767946001       -1.0291026773       -2.4488450804
HB1        -2.7614339708       -1.9424770314       -2.3312579358
HB2        -2.4712602559       -0.3154337275       -1.6788079451
HB3        -2.3821982329       -0.6017194484       -3.4311360612
C           0.2439625261       -0.1381062584       -2.6024229078
O          -0.2060685370        1.0078381321       -2.6620299391
N           1.5500878769       -0.3995711484       -2.7350099907
H           1.8324214231       -1.3640504233       -2.5845739979
CH3         2.5963472337        0.5769897770       -3.0376574129
HH31        3.3524436115        0.5611857024       -2.2510358405
HH32        2.1790940533        1.5835983515       -3.1074643494
HH33        3.0682696038        0.3269333558       -3.9889960474
          52
Energy of minimum      4=    -12.66968402     first found at step      134 after                70759 function calls
HH31       -3.0097199755        0.1555575715       -2.0676145832
CH3        -3.4251773097        1.1510332689       -1.9278578786
HH32       -4.4551833028        1.0762524227       -1.5826429551
HH33       -3.3913821194        1.6908467993       -2.8721286629
C          -2.6106109147        1.9008067978       -0.9015370197
O          -3.1523186123        2.3826917682        0.0855573048
N          -1.2998147249        1.9839059425       -1.1131599750
H          -0.9259306968        1.4805464327       -1.9110047641
CA         -0.3620436075        2.7663539405       -0.2970779660
HA         -0.8557407434        3.7047427669       -0.0389603873
CB          0.8554787427        3.1124805903       -1.1662002661
HB1         1.5126154012        3.7930197313       -0.6231481609
HB2         0.5319596303        3.5960134500       -2.0886959637
HB3         1.4078940561        2.2037710479       -1.4048111186
C           0.0113591438        2.0919670330        1.0465037386
O           1.1743316792        2.0805114415        1.4524116738
N          -0.9578693260        1.4670724405        1.7210055789
H          -1.9026422816        1.5554119916        1.3621919460
CA         -0.7506635747        0.6452497558        2.9136947640
HA         -0.1049880490        1.1875111787        3.6064929445
CB         -2.1097783927        0.4414507656        3.5980592806
HB1        -2.7967636124       -0.0732247047        2.9240508500
HB2        -1.9800248210       -0.1603928550        4.4982483566
HB3        -2.5351252963        1.4071186747        3.8743210852
C          -0.0432352088       -0.6760336535        2.5432202261
O          -0.6877447192       -1.7028307622        2.3390518651
N           1.2832979219       -0.6139276342        2.3739201878
H           1.6821971588        0.3123361785        2.4741729632
CA          2.1740521857       -1.6273642408        1.7804835664
HA          3.1705661232       -1.1838693197        1.7660396726
CB          2.2652262397       -2.8518412695        2.7026938611
HB1         1.3094198670       -3.3762149080        2.7326368304
HB2         2.5368571306       -2.5394601576        3.7115465915
HB3         3.0282420739       -3.5341609673        2.3258962302
C           1.8818603420       -1.9971438202        0.3061519181
O           2.8133476315       -2.2652398877       -0.4509361191
N           0.6241650258       -1.9443759560       -0.1383482762
H          -0.1002423523       -1.8030846298        0.5555739935
CA          0.2009744487       -2.1213945660       -1.5265733430
HA          0.7445070968       -2.9697096293       -1.9460645602
CB         -1.2909637426       -2.4841065458       -1.5188750671
HB1        -1.6409070338       -2.6251008114       -2.5422457750
HB2        -1.4437229742       -3.4092795677       -0.9615152434
HB3        -1.8674443026       -1.6867156702       -1.0489440789
C           0.5417656021       -0.8896604911       -2.3989303645
O          -0.3408361386       -0.1374558835       -2.8160542985
N           1.8393925955       -0.6664388893       -2.6394665814
H           2.4960737000       -1.2930833484       -2.1831525887
CH3         2.3829111089        0.4068159706       -3.4717334389
HH31        3.2358646159        0.8665381902       -2.9700024953
HH32        2.7095021788       -0.0005972569       -4.4297451466
HH33        1.6270121327        1.1727012747       -3.6564983512
          52
Energy of minimum      5=    -12.61054708     first found at step      180 after                94079 function calls
HH31       -3.3977840269        1.2829679260       -2.9191104615
CH3        -3.5141245555        0.9038468789       -1.9053703615
HH32       -4.5657774909        0.9237042090       -1.6234365848
HH33       -3.1371552059       -0.1156232614       -1.8556295262
C          -2.7288033708        1.7750198293       -0.9552392984
O          -3.2864008035        2.3163648037       -0.0086380000
N          -1.4227342126        1.8888305129       -1.1821630185
H          -1.0400765027        1.3586043918       -1.9580009186
CA         -0.5014953763        2.7378247901       -0.4158093424
HA         -1.0125707205        3.6807846124       -0.2143043985
CB          0.7105502016        3.0525502706       -1.3044552329
HB1         1.2756641849        2.1401447937       -1.4952696312
HB2         1.3588483348        3.7702263941       -0.7999490228
HB3         0.3795857338        3.4810285361       -2.2512282431
C          -0.1190664563        2.1477390598        0.9646116168
O           1.0522400183        2.1145383048        1.3433979441
N          -1.0964997362        1.6152091129        1.7035501351
H          -2.0440633355        1.7087899122        1.3523596851
CA         -0.9025628660        0.8898873493        2.9597086175
HA         -0.2105185954        1.4548659642        3.5865446593
CB         -2.2519471454        0.8249153845        3.6890458676
HB1        -2.9824558874        0.2888392581        3.0807101501
HB2        -2.6184112054        1.8337385616        3.8832856841
HB3        -2.1304672007        0.3023344138        4.6385815111
C          -0.2739791923       -0.4966355734        2.7020436505
O          -0.9582501885       -1.5179628438        2.6681625862
N           1.0286394278       -0.5243603217        2.4103950992
H           1.4991641029        0.3710840368        2.3370874298
CA          1.7802895145       -1.7146399629        1.9972275422
HA          1.4235057619       -2.5622852955        2.5848468461
CB          3.2583131497       -1.4940691040        2.3515598006
HB1         3.8300307010       -2.3934690982        2.1186174023
HB2         3.6595611029       -0.6596764586        1.7741596649
HB3         3.3585750523       -1.2796479878        3.4161599902
C           1.5399019555       -2.0756379116        0.5096894704
O           2.4800664454       -2.3504783424       -0.2338976415
N           0.2747473327       -2.0239118669        0.0730780362
H          -0.4218096603       -1.8681408897        0.7929637959
CA         -0.2232740048       -2.0925984803       -1.3088949559
HA         -1.2976652491       -1.9142164318       -1.2507846205
CB         -0.0632541922       -3.5200490569       -1.8522124525
HB1        -0.5365875124       -4.2308494060       -1.1737937125
HB2         0.9931922000       -3.7714134452       -1.9541401823
HB3        -0.5398360166       -3.5934436520       -2.8304785875
C           0.3119659727       -1.0073626389       -2.2727948115
O          -0.4882858368       -0.2683343890       -2.8461171628
N           1.6333451752       -0.8780611477       -2.4334426359
H           2.2180530009       -1.4971559314       -1.8785640688
CH3         2.2964711480        0.0671522697       -3.3310423651
HH31        1.6316695010        0.8982149593       -3.5742697209
HH32        3.1949586663        0.4606368554       -2.8530744883
HH33        2.5765178626       -0.4398198937       -4.2556757389
          52
Energy of minimum      6=    -11.72038208     first found at step      230 after               120067 function calls
HH31       -4.4321299625        2.1066540965       -0.2901776130
CH3        -3.5083746574        2.2381227941       -0.8516667607
HH32       -3.5719862087        3.1396994319       -1.4577245100
HH33       -3.3445325282        1.3777346765       -1.4978521755
C          -2.3556409913        2.3730256700        0.1141238280
O          -2.5736080651        2.4575409160        1.3162611402
N          -1.1358886237        2.3868377892       -0.4226466910
H          -1.0990097762        2.2253401862       -1.4234647003
CA          0.1664576674        2.4521716205        0.2612960611
HA          0.9196237045        2.4074066382       -0.5251089589
CB          0.3346323658        3.8243885198        0.9293235809
HB1         0.1642461101        4.6168531522        0.1997517662
HB2        -0.3740657339        3.9341371249        1.7512035443
HB3         1.3478723463        3.9164531552        1.3223113271
C           0.5056206022        1.2762698071        1.2052424616
O           1.6319643748        0.7849689874        1.1599752828
N          -0.4453124954        0.8030888705        2.0186134986
H          -1.3229466531        1.3133177626        2.0087423580
CA         -0.4107803345       -0.4207450249        2.8308112544
HA         -1.4162985077       -0.5474713092        3.2352289199
CB          0.5146165302       -0.2334004084        4.0431032384
HB1         1.5453129635       -0.0853947217        3.7189086452
HB2         0.4648669587       -1.1165554548        4.6810604708
HB3         0.1951114234        0.6363055284        4.6185881848
C          -0.1414012432       -1.7021472378        2.0148088051
O          -1.0666451198       -2.4647604286        1.7471934709
N           1.0873931190       -1.9076392464        1.5361882127
H           1.7612252631       -1.1664206769        1.6912693727
CA          1.4616751921       -2.9688900084        0.5959630544
HA          0.9199277206       -3.8757798104        0.8699226111
CB          2.9614748943       -3.2528057372        0.7628728694
HB1         3.5406567931       -2.3694976972        0.4891979444
HB2         3.2522657399       -4.0816893457        0.1160746300
HB3         3.1767138316       -3.5209850437        1.7978233996
C           1.0474941515       -2.6226052001       -0.8554314485
O           1.8371352235       -2.7309158942       -1.7926845438
N          -0.1753376968       -2.1137094062       -1.0354468988
H          -0.7850874972       -2.0978103877       -0.2266431092
CA         -0.7005926468       -1.5672134846       -2.2893119942
HA         -0.3973400972       -2.2303735917       -3.1012998040
CB         -2.2340797802       -1.6002377213       -2.2110860605
HB1        -2.6582576517       -1.2322683058       -3.1462618235
HB2        -2.5752474844       -2.6233869849       -2.0480170421
HB3        -2.5799243125       -0.9718376820       -1.3895164692
C          -0.1188395670       -0.1688379268       -2.6188916743
O          -0.8558260635        0.8059477235       -2.7795825190
N           1.2150151117       -0.0618214112       -2.6659085903
H           1.7403472311       -0.9163483828       -2.5032511000
CH3         1.9731945840        1.1615615396       -2.9257689408
HH31        1.3079500753        1.9747322292       -3.2229485037
HH32        2.5166429251        1.4544146345       -2.0258075655
HH33        2.6897167953        0.9845756764       -3.7293604359
          52
Energy of minimum      7=    -11.21357923     first found at step      212 after               110433 function calls
HH31       -4.2339731384        2.0058361692       -0.5856774207
CH3        -3.3363414493        2.0052894216       -1.2022179155
HH32       -3.4433284446        2.7287112695       -2.0080267763
HH33       -3.1797110118        1.0140828775       -1.6234295717
C          -2.1496404760        2.3875343660       -0.3505330530
O          -2.3224953148        2.7695247589        0.7998961397
N          -0.9517598442        2.2751270128       -0.9239265630
H          -0.9502828544        1.8707584771       -1.8544156676
CA          0.3738300652        2.5389290660       -0.3385442721
HA          1.0982573784        2.2870032611       -1.1129201687
CB          0.5324903931        4.0441419276       -0.0813269080
HB1        -0.1489301512        4.3652748954        0.7076692044
HB2         1.5565907408        4.2550437255        0.2290220739
HB3         0.3161611051        4.6026600611       -0.9926702449
C           0.7791540882        1.6774008079        0.8798092577
O           1.9425888698        1.2895317137        0.9833156928
N          -0.1485088939        1.3147923573        1.7687331145
H          -1.0791442633        1.7029381637        1.6552892517
CA          0.0704364317        0.3730373962        2.8656075477
HA          0.9813668458        0.6546107932        3.3962552975
CB         -1.1048234688        0.4943196689        3.8454981788
HB1        -2.0416751575        0.2524864256        3.3403709910
HB2        -1.1607137936        1.5120960326        4.2337638831
HB3        -0.9620075717       -0.1966899623        4.6769380308
C           0.2582412863       -1.0537521415        2.3105431504
O          -0.7075186830       -1.7928386224        2.1286244433
N           1.5050496075       -1.3977271198        1.9655528253
H           2.1950354431       -0.6662524673        2.0770784217
CA          1.9327120284       -2.5494297601        1.1518967210
HA          3.0141046379       -2.4581549842        1.0411104111
CB          1.6923347349       -3.8592322070        1.9168522963
HB1         2.1509957532       -3.8034728693        2.9046143682
HB2         0.6233965252       -4.0455990147        2.0260560114
HB3         2.1382221155       -4.6882484191        1.3658598408
C           1.3838440909       -2.5759443348       -0.2945540385
O           2.1220261553       -2.9117334062       -1.2185231896
N           0.1394901585       -2.1495173758       -0.5245869849
H          -0.4310278412       -1.9484167086        0.2888848390
CA         -0.4767213404       -1.9637554178       -1.8399461600
HA         -0.1995162076       -2.8117722322       -2.4684255686
CB         -2.0005787250       -2.0020462045       -1.6536360154
HB1        -2.2960115931       -2.9550116173       -1.2127068889
HB2        -2.3168073506       -1.1912967291       -0.9962490934
HB3        -2.4929981234       -1.8926305326       -2.6207429102
C           0.0365330577       -0.6906272813       -2.5578343109
O          -0.7345729981        0.2139796558       -2.8835166050
N           1.3572628169       -0.5983816517       -2.7565131059
H           1.9172658089       -1.3822236263       -2.4334040123
CH3         2.0522108022        0.5241555623       -3.3855297629
HH31        2.8302515887        0.1475944636       -4.0513912860
HH32        1.3549528105        1.1294887168       -3.9686583286
HH33        2.5142833560        1.1484056385       -2.6193351698
          52
Energy of minimum      8=    -11.09574933     first found at step      216 after               112899 function calls
HH31       -4.8042064432       -0.4764550753       -0.5302481546
CH3        -3.9316555699       -0.3917897253       -1.1764048758
HH32       -4.2508924589       -0.2633004703       -2.2089418818
HH33       -3.3229447604       -1.2903350863       -1.0933944524
C          -3.1169861245        0.8074944218       -0.7552964594
O          -3.4982163341        1.5072844574        0.1741443815
N          -1.9930550901        1.0255880239       -1.4380395340
H          -1.7707782499        0.3303131362       -2.1426974670
CA         -0.9761399045        2.0696322685       -1.2221573777
HA         -0.1903217313        1.8796121470       -1.9534542230
CB         -1.5647415048        3.4423723569       -1.5772655390
HB1        -2.3461897967        3.7129364700       -0.8658565496
HB2        -1.9865444453        3.4181019593       -2.5826592953
HB3        -0.7778587500        4.1967974150       -1.5412960994
C          -0.2560334239        2.0631073289        0.1465781945
O           0.9506903167        2.2984241714        0.1944722329
N          -0.9388221211        1.7404733485        1.2475338772
H          -1.9393863173        1.6033666693        1.1486326462
CA         -0.3557204715        1.5558061870        2.5763975456
HA          0.3184747664        2.3887253339        2.7828270513
CB         -1.4911087501        1.6008148503        3.6085325224
HB1        -2.2054052909        0.7982748065        3.4163649898
HB2        -2.0070833664        2.5601189955        3.5513147684
HB3        -1.0804575383        1.4770954344        4.6112123204
C           0.4714420294        0.2542752598        2.6303988322
O          -0.0097374545       -0.7990268923        3.0454440164
N           1.6979503771        0.2985317880        2.1050484828
H           1.9762690937        1.1692005635        1.6675993889
CA          2.5674065621       -0.8640794301        1.8983599553
HA          2.4561329515       -1.5322014131        2.7541758769
CB          4.0237902048       -0.3771552852        1.8752743441
HB1         4.6947490699       -1.2321029136        1.7809334172
HB2         4.1806169499        0.2911997575        1.0271414068
HB3         4.2547404691        0.1513497647        2.8008691162
C           2.1547763332       -1.6727097916        0.6437773794
O           2.9789018895       -1.9618194899       -0.2217773110
N           0.8557616641       -1.9784094843        0.5262358988
H           0.2851745575       -1.7419141649        1.3307855895
CA          0.1372746651       -2.5097423767       -0.6435767803
HA         -0.9156541114       -2.5433860781       -0.3608096144
CB          0.5539270227       -3.9661753115       -0.8944782525
HB1        -0.0712243261       -4.3937563912       -1.6792877493
HB2         0.4276224437       -4.5516309270        0.0169713471
HB3         1.5969443454       -4.0133018313       -1.2099516538
C           0.1822028343       -1.6369682897       -1.9210150870
O          -0.8695985792       -1.3726490427       -2.5036940350
N           1.3555854180       -1.1478390613       -2.3361413156
H           2.1742041029       -1.4115132828       -1.7948880118
CH3         1.5540801053       -0.2913550119       -3.5039652730
HH31        1.4503006738        0.7558888438       -3.2175610512
HH32        2.5539662930       -0.4503164462       -3.9107898452
HH33        0.8177777750       -0.5268524863       -4.2753776925
          52
Energy of minimum      9=    -11.08434271     first found at step      240 after               126002 function calls
HH31       -4.4489401599        0.6054738648       -2.1150615384
CH3        -3.4006574506        0.7886047520       -2.3457558316
HH32       -3.3201922911        1.3458683920       -3.2769912327
HH33       -2.8739517624       -0.1579204376       -2.4461921805
C          -2.7806052981        1.5970563336       -1.2318065223
O          -3.4706340340        2.0063408026       -0.3058067536
N          -1.4696828884        1.8124932132       -1.2991517379
H          -0.9619965349        1.3613639442       -2.0532153274
CA         -0.7066322238        2.6532060431       -0.3684352150
HA         -1.3209597860        3.5221751939       -0.1265946194
CB          0.5429631012        3.1650728250       -1.0992689431
HB1         1.0742633645        3.8752168696       -0.4642777710
HB2         0.2565255275        3.6648368538       -2.0253322067
HB3         1.2052510252        2.3298461608       -1.3259030581
C          -0.3972659434        1.9515113993        0.9765542750
O           0.7435065642        1.9491123017        1.4387519114
N          -1.4092657200        1.3173031608        1.5814750592
H          -2.3182932546        1.4254341396        1.1423221979
CA         -1.3301012753        0.3781144938        2.7088268883
HA         -2.3285495987       -0.0469417066        2.8234052787
CB         -1.0366477101        1.1284618162        4.0174759088
HB1        -1.0643574161        0.4289102162        4.8537475685
HB2        -1.7919933912        1.8989686570        4.1767812548
HB3        -0.0533541302        1.5983576117        3.9787473403
C          -0.4073675175       -0.8297826129        2.4411975596
O          -0.9069457276       -1.9199209723        2.1760135737
N           0.9152810476       -0.6265217968        2.4356653126