          22
Energy of minimum      1=     0.000000000     first found at step        0 after                  148 function calls
HH31       -3.0740851240        2.0882390990        0.5264848099
CH3        -3.3584454921        1.1855780921       -0.0135742566
HH32       -4.3366770022        0.8505246103        0.3303308510
HH33       -3.4049454134        1.4048167051       -1.0799207918
C          -2.3237509899        0.1012672808        0.2341099864
O          -2.6530937628       -0.9637030823        0.7605833053
N          -1.0711248261        0.3782591685       -0.1374816640
H          -0.8947455959        1.2865308484       -0.5463673127
CA          0.0776745507       -0.5309188529       -0.0288082333
HA          0.0237059821       -1.0514120267        0.9304066700
CB         -0.0036872536       -1.5750490457       -1.1564585829
HB1         0.0385267079       -1.0798822023       -2.1280229597
HB2        -0.9341445074       -2.1393709052       -1.0828738108
HB3         0.8314542240       -2.2726542124       -1.0782156408
C           1.4200530264        0.2315542343       -0.0658277920
O           1.5020093635        1.3474701337       -0.5920346612
N           2.4762922795       -0.3790566635        0.4831886435
H           2.3338190769       -1.2958822218        0.8849356262
CH3         3.8236410946        0.1813007812        0.5363626905
HH31        3.8140447715        1.1229714938        1.0879440170
HH32        4.4955560150       -0.5167494238        1.0381147791
HH33        4.1915982894        0.3629603812       -0.4749163074
          22
Energy of minimum      2=    0.7438470247     first found at step      424 after                78578 function calls
HH31        2.8220111643        1.2694788174        1.5004975146
CH3         3.1517621720        0.7213282436        0.6183647041
HH32        3.7778165862        1.3673512260        0.0033164241
HH33        3.7273231345       -0.1494480666        0.9312098907
C           1.9406458371        0.2662758860       -0.1767244820
O           1.7841172312        0.6359689222       -1.3415948315
N           1.0753688479       -0.5319083902        0.4549127197
H           1.2877746900       -0.7953699142        1.4079064100
CA         -0.1262351856       -1.1136605569       -0.1614644004
HA          0.0993879523       -1.3511476437       -1.2034174035
CB         -0.4324792540       -2.4315318430        0.5663337599
HB1        -1.2736521496       -2.9324812823        0.0847263303
HB2         0.4354911348       -3.0915867904        0.5247427104
HB3        -0.6877868158       -2.2350853905        1.6090225734
C          -1.3541574478       -0.1708263010       -0.1865113401
O          -2.3816248139       -0.5153135256       -0.7795102010
N          -1.2646874596        1.0087354019        0.4411820559
H          -0.3913751450        1.2215119220        0.9015744206
CH3        -2.3301098400        2.0047324749        0.5055194594
HH31       -1.9937941027        2.8702448734        1.0784451155
HH32       -2.5984826443        2.3283394382       -0.5015947167
HH33       -3.2098076255        1.5781424121        0.9904805794
          22
Energy of minimum      3=    0.9150406728     first found at step      423 after                78373 function calls
HH31        2.6016498396        2.3214482746        0.4883508194
CH3         3.0550927884        1.3340367237        0.5705088481
HH32        4.0396445820        1.3478488796        0.1035987819
HH33        3.1575283972        1.0719447764        1.6232131617
C           2.1695850040        0.3116217651       -0.1206239014
O           2.6055066166       -0.3506961078       -1.0643521821
N           0.9234793239        0.1894779489        0.3471287656
H           0.6795461628        0.7454344682        1.1560081295
CA         -0.0561155834       -0.8088045273       -0.1136985813
HA          0.1757612299       -1.0716329604       -1.1480260425
CB          0.1209244705       -2.0699475946        0.7503677088
HB1        -0.5282257552       -2.8665491400        0.3842208404
HB2         1.1542797317       -2.4161533631        0.6997823957
HB3        -0.1342082077       -1.8516055546        1.7885002601
C          -1.5185723050       -0.2947486343       -0.1314868617
O          -2.4588604545       -1.0917739495       -0.2161826229
N          -1.7257255609        1.0260340102       -0.0428302565
H          -0.9143515855        1.6269744491       -0.0175992829
CH3        -3.0396878168        1.6633608028       -0.0251194912
HH31       -2.9257417288        2.7452136870        0.0592776529
HH32       -3.6183489936        1.3003499189        0.8260289850
HH33       -3.5773151907        1.4342471576       -0.9468253079
          22
Energy of minimum      4=    0.9383244693     first found at step      250 after                44697 function calls
HH31        3.9708268751        0.3298371026       -0.2433749962
CH3         3.3580665871       -0.5275608019       -0.5203289511
HH32        3.8577462971       -1.4452077184       -0.2109834919
HH33        3.2205404740       -0.5364848011       -1.6012162975
C           2.0040678177       -0.4215690634        0.1599334417
O           1.6226228845       -1.3040786261        0.9316256745
N           1.2746078988        0.6599236328       -0.1239833849
H           1.6575609777        1.3296850535       -0.7760481578
CA         -0.0639464820        0.9224427797        0.4157131865
HA         -0.0568546222        0.6946442952        1.4843782740
CB         -0.3655944383        2.4191425932        0.2494160229
HB1        -1.3374045704        2.6505546166        0.6884041344
HB2        -0.3845015116        2.6838733329       -0.8092870000
HB3         0.3972846551        3.0124781938        0.7562550420
C          -1.1507278093        0.0435207225       -0.2429482175
O          -1.0660183702       -0.2941925668       -1.4296286663
N          -2.1892451718       -0.3053490124        0.5252991139
H          -2.1969363446        0.0185307414        1.4828876282
CH3        -3.3154668396       -1.1196263272        0.0776957265
HH31       -3.8279942049       -0.6241555173       -0.7486669036
HH32       -2.9597392753       -2.0959467736       -0.2559417464
HH33       -4.0201458631       -1.2604808259        0.8987177058
          22
Energy of minimum      5=     1.468616810     first found at step      421 after                77912 function calls
HH31        2.6731326076        2.2952360206       -0.7311392805
CH3         3.0276132563        1.5664313637       -0.0027217673
HH32        4.0857699248        1.3696390537       -0.1734554745
HH33        2.8918027403        1.9664428061        1.0017434936
C           2.2328569625        0.2796901712       -0.1460491954
O           2.8063646670       -0.7747640820       -0.4267056746
N           0.9114131447        0.3726884629        0.0362090270
H           0.5439678100        1.2943794476        0.2230405839
CA         -0.0351494532       -0.7542525451       -0.0399788086
HA          0.2337536227       -1.3763632363       -0.8966812730
CB          0.1028424740       -1.6062968190        1.2340784315
HB1         1.1209066748       -1.9850088726        1.3301256665
HB2        -0.5787743304       -2.4567428428        1.1823775133
HB3        -0.1414174932       -1.0095867019        2.1143816844
C          -1.5052673550       -0.3271519459       -0.2500568375
O          -2.2518371259       -1.0275549175       -0.9403682472
N          -1.9237428016        0.8158313565        0.3106179076
H          -1.2819626499        1.3138490177        0.9095968906
CH3        -3.2718325160        1.3601609764        0.1708895484
HH31       -3.4918592472        1.5446117270       -0.8820404656
HH32       -4.0018546058        0.6539865580        0.5702522471
HH33       -3.3510575358        2.3000541410        0.7193969550
          22
Energy of minimum      6=     2.922088137     first found at step      755 after               151089 function calls
HH31        2.8849805580       -1.6631124884        1.1583477676
CH3         3.0987434856       -0.9663168566        0.3482732341
HH32        3.5719856963       -1.5017938028       -0.4744957051
HH33        3.7731125936       -0.1907322878        0.7103916349
C           1.8045845719       -0.3283001736       -0.1259326770
O           1.4382626104       -0.4693083586       -1.2935581017
N           1.1108699417        0.3564532987        0.7917858716
H           1.5089276589        0.3936793115        1.7212687450
CA         -0.1284261787        1.1285402559        0.5754633076
HA         -0.3900039987        1.5736957837        1.5378223931
CB          0.1552514023        2.2928033706       -0.3931771042
HB1         0.3291681379        1.9177009824       -1.4019424683
HB2         1.0311532130        2.8510690977       -0.0597289418
HB3        -0.6996379052        2.9699586081       -0.4158536075
C          -1.3699564908        0.2876367108        0.1763301166
O          -2.4015892059        0.8492344491       -0.2076928758
N          -1.2934411807       -1.0459468647        0.2701485891
H          -0.4172646724       -1.4361315065        0.5857849727
CH3        -2.3709474607       -1.9724244036       -0.0642856387
HH31       -2.0413261336       -2.9991062682        0.1022071147
HH32       -3.2417095600       -1.7730701085        0.5626563934
HH33       -2.6504925943       -1.8551521798       -1.1126762836
          22
Energy of minimum      7=     4.163326104     first found at step      244 after                43601 function calls
HH31        3.2733392525       -1.3934694602        1.1279852456
CH3         3.3905211919       -0.6670670954        0.3242878831
HH32        3.9335602877       -1.1258256762       -0.5016308892
HH33        3.9517072100        0.1906088192        0.6941501671
C           2.0203116374       -0.2095602081       -0.1472302684
O           1.6823448539       -0.3882562660       -1.3194174969
N           1.2462718553        0.3768094819        0.7745412484
H           1.6367860982        0.4564300236        1.7034391507
CA         -0.1184484398        0.9022472895        0.5868567764
HA         -0.4289172738        1.3394231907        1.5386828589
CB         -0.0914437401        2.0527388617       -0.4407920920
HB1         0.0744061429        1.6650958378       -1.4463838152
HB2        -1.0386453441        2.5930330086       -0.4271517612
HB3         0.7052352819        2.7554526771       -0.1915929264
C          -1.1736445379       -0.1902350832        0.2703864005
O          -0.8795526920       -1.3914485333        0.2599806809
N          -2.4246151616        0.2272784769        0.0396711853
H          -2.5996516866        1.2220910250        0.0709999461
CH3        -3.5530815149       -0.6489919388       -0.2621025600
HH31       -4.4545663000       -0.0531976149       -0.4132327522
HH32       -3.3489893772       -1.2198080217       -1.1696099239
HH33       -3.7195442256       -1.3405170854        0.5656196228
          22
Energy of minimum      8=     142.6037296     first found at step      416 after                76713 function calls
HH31        4.4099069865       -1.0890946140       -0.3706987966
CH3         3.8820364819       -0.3553962968        0.2372467527
HH32        4.2933032393        0.6156739679       -0.0683464870
HH33        4.1400601498       -0.6069706132        1.2743677304
C           2.3830309332       -0.5312904060       -0.0944258470
O           2.2831829733        0.3853957576        0.7290556116
N           1.0294920640       -0.4844236569       -0.2508361025
H           0.6974593369       -1.2682021104       -0.7970899748
CA         -0.0861240014        0.4792395368        0.0195313231
HA         -0.0113046068        0.8632237202        1.0398422716
CB          0.0168978047        1.6618677551       -0.9623712346
HB1         0.9743297582        2.1697296350       -0.8405904677
HB2        -0.7829438663        2.3777145661       -0.7678470745
HB3        -0.0695851217        1.3036664874       -1.9893971788
C          -1.4607584467       -0.2133163540       -0.0926403689
O          -1.5990477475       -1.2395311251       -0.7687114981
N          -2.4805999457        0.3562109785        0.5598554657
H          -2.2915413182        1.2001281622        1.0835455296
CH3        -3.8499288477       -0.1505874640        0.5633374078
HH31       -4.4827850606        0.4964049037        1.1727560027
HH32       -3.8723942646       -1.1603352246        0.9768249005
HH33       -4.2414504876       -0.1724556634       -0.4551425162
