          45
Energy of minimum      1=     0.000000000     first found at step      296 after               103507 function calls
HH31       -2.3920402509        3.7332659807        2.2844654208
CH3        -1.9686305886        2.7769119083        2.5899712662
HH32       -0.8813879838        2.8370197217        2.5516083155
HH33       -2.2829083168        2.5510388947        3.6086888127
C          -2.4484081122        1.6885965190        1.6470823887
O          -3.0913685821        0.7290582352        2.0699270621
N          -2.1324654545        1.8304730802        0.3619516697
H          -1.6146538554        2.6519329916        0.0762434689
CA         -2.5254305655        0.8955069131       -0.7095500073
HA         -3.4853114330        0.4430874827       -0.4555178875
CB         -2.7247980209        1.6863671099       -2.0144310496
HB2        -3.5585892896        2.3779402135       -1.8774867087
HB3        -2.9849401979        0.9962660697       -2.8194863437
OG         -1.5577367560        2.4275290636       -2.3713699721
HG         -1.7326475476        2.9175114126       -3.2051566166
C          -1.5373047285       -0.2734636807       -0.9240408733
O          -1.7990241403       -1.1757168569       -1.7270567214
N          -0.4067146687       -0.2907278974       -0.2047777124
H          -0.2612084787        0.4622394695        0.4522180765
CA          0.6265015423       -1.3351257958       -0.2927061277
HA          0.8460076379       -1.5123105058       -1.3475830794
CB          1.9165748097       -0.8370711131        0.3895345598
HB2         1.7000706736       -0.5760253444        1.4276181466
HB3         2.6467114084       -1.6489947483        0.3892717936
CG          2.5387553903        0.3751182032       -0.3246794196
HG2         1.8423339037        1.2145261551       -0.3009803286
HG3         2.7405121017        0.1140253037       -1.3648236848
CD          3.8496336312        0.7979472093        0.3519955458
HD2         3.6489597752        1.0589613361        1.3931910675
HD3         4.5547881163       -0.0353728277        0.3237514112
CE          4.4522853219        2.0077805699       -0.3762640474
HE2         4.6262682057        1.7388295963       -1.4226911175
HE3         3.7276789151        2.8276658955       -0.3579486057
NZ          5.7282182983        2.4498903586        0.2481418940
HZ1         6.1125777330        3.2464561934       -0.2420666694
HZ2         6.4206993047        1.7137436015        0.2264708579
HZ3         5.5895321643        2.7211269189        1.2120371781
C           0.1642587738       -2.6820108894        0.3099393508
O          -0.5564832573       -2.7169711009        1.3151903361
N           0.6055175250       -3.7959545357       -0.2874944259
H           1.2004541408       -3.6908949156       -1.0971488949
CH3         0.2883493361       -5.1546937324        0.1470908022
HH31       -0.7911827207       -5.3132132918        0.1188497779
HH32        0.6467342419       -5.3140514431        1.1656561325
HH33        0.7691598764       -5.8775495926       -0.5139598204
          45
Energy of minimum      2=    0.7385026522E-01 first found at step       85 after                28847 function calls
HH31       -2.8767215548        0.8909614032        3.6642364010
CH3        -2.3553734023        1.6074586556        3.0298851337
HH32       -2.7958757974        2.5952604676        3.1617026104
HH33       -1.3034994865        1.6428609160        3.3117831976
C          -2.4752980288        1.1926783082        1.5756111163
O          -3.0840753626        0.1713367361        1.2600162496
N          -1.8756218466        1.9717779416        0.6777439358
H          -1.3653377626        2.7841195657        1.0007699229
CA         -1.9194015044        1.7495873243       -0.7804442375
HA         -2.9577173598        1.5920989119       -1.0770365759
CB         -1.4227027015        3.0116274935       -1.5062475549
HB2        -1.4164377384        2.8285420767       -2.5826478299
HB3        -2.1205519083        3.8266035992       -1.3037427294
OG         -0.1179257952        3.3969648684       -1.0748201113
HG          0.1535279331        4.2070896237       -1.5603602486
C          -1.1390089769        0.5051920067       -1.2564223689
O          -1.3319274417        0.0418202195       -2.3847698403
N          -0.3024535424       -0.0851609794       -0.3911314473
H          -0.1715021173        0.3630088728        0.5056591640
CA          0.4140199708       -1.3478835237       -0.6389336011
HA          0.6921760001       -1.3948259223       -1.6933598343
CB          1.7107046373       -1.3588870563        0.1962099492
HB2         1.4615125644       -1.2548603064        1.2541874399
HB3         2.2092054845       -2.3200571418        0.0571638326
CG          2.6900723007       -0.2452131376       -0.2127286843
HG2         2.2337024815        0.7302392418       -0.0385381942
HG3         2.9193423076       -0.3420522273       -1.2751790328
CD          3.9922832202       -0.3349261473        0.5940254094
HD2         4.4600740361       -1.3054945057        0.4163662892
HD3         3.7637203689       -0.2392421647        1.6575117686
CE          4.9522676626        0.7854337893        0.1696085638
HE2         5.1531984518        0.6905282849       -0.9019177673
HE3         4.4627382512        1.7503128092        0.3337035607
NZ          6.2312897387        0.7345030345        0.9276847842
HZ1         6.0727172895        0.8381940256        1.9206424380
HZ2         6.7113261596       -0.1422848091        0.7770290912
HZ3         6.8524405965        1.4776915102        0.6372373490
C          -0.4435336491       -2.6086866428       -0.3688601099
O          -0.0123466120       -3.7249039882       -0.6786410594
N          -1.6491207203       -2.4501634751        0.1946020588
H          -1.9361710329       -1.5049288939        0.4160556730
CH3        -2.5777363808       -3.5314691401        0.5113304647
HH31       -2.8526762173       -4.0663608388       -0.3994117079
HH32       -3.4799789625       -3.1203789415        0.9668619491
HH33       -2.1139828870       -4.2291867870        1.2108241482
          45
Energy of minimum      3=    0.2721881444     first found at step      402 after               143832 function calls
HH31       -3.6942607791       -1.5046466168        2.2845089784
CH3        -4.5117315325       -1.3084504913        1.5913557314
HH32       -4.9958872875       -2.2483495457        1.3272829880
HH33       -5.2366763061       -0.6496321399        2.0684577131
C          -3.9663231155       -0.6388615071        0.3433152192
O          -4.0974654294       -1.1647539510       -0.7609298766
N          -3.3433464299        0.5249849067        0.5131091191
H          -3.2737966274        0.9081261772        1.4474356678
CA         -2.7652371459        1.3352389555       -0.5760529168
HA         -3.3879780480        1.2307907178       -1.4659917993
CB         -2.7968267684        2.8188495530       -0.1687127834
HB2        -3.8388690901        3.1293426477       -0.0687358991
HB3        -2.3376685291        3.4198155206       -0.9561485930
OG         -2.1217513228        3.0464353577        1.0686367863
HG         -2.1746411139        4.0022851958        1.2909803761
C          -1.3378162529        0.9131300010       -0.9928599671
O          -0.7979049550        1.4308861749       -1.9765922211
N          -0.7285525199       -0.0454470360       -0.2798780842
H          -1.2415499002       -0.4292504613        0.5027373343
CA          0.6390102546       -0.5470297413       -0.4960996194
HA          0.8239017521       -0.5914683178       -1.5712559637
CB          1.6336634682        0.4557657335        0.1306418157
HB2         1.4222324600        1.4530295078       -0.2592427628
HB3         1.4882300776        0.4783784887        1.2125901686
CG          3.1033848755        0.1234980188       -0.1748446436
HG2         3.2421349896        0.0673500507       -1.2557593520
HG3         3.3614132495       -0.8398723678        0.2667695550
CD          4.0390886417        1.1969558957        0.3977486736
HD2         3.7922410527        2.1637934051       -0.0459207922
HD3         3.8992739599        1.2562241179        1.4791848176
CE          5.5006688525        0.8452014478        0.0852071206
HE2         5.7285690991       -0.1340030684        0.5175498721
HE3         5.6208899025        0.7678556738       -0.9998131524
NZ          6.4417938118        1.8638644392        0.6238040426
HZ1         6.2626679257        2.7751795737        0.2246284572
HZ2         7.3993583021        1.6188372808        0.4102550023
HZ3         6.3622529528        1.9409686883        1.6286169800
C           0.8128924089       -1.9739316495        0.0723386220
O           0.3149341430       -2.2812557027        1.1617838144
N           1.5222538101       -2.8432250820       -0.6581727663
H           1.8963910334       -2.5236845633       -1.5407071322
CH3         1.7954602343       -4.2257290353       -0.2703153762
HH31        2.3457845614       -4.2474354490        0.6720488123
HH32        0.8582958227       -4.7721507999       -0.1497743389
HH33        2.3936912786       -4.7159932069       -1.0400508637
          45
Energy of minimum      4=    0.2770475796     first found at step      292 after               102065 function calls
HH31       -2.7884977903        3.3321186762        2.3668429905
CH3        -2.0899626796        2.5296721423        2.6021617082
HH32       -1.0717331921        2.8790270813        2.4337018448
HH33       -2.2061467736        2.2441044543        3.6474108226
C          -2.3706342826        1.3374080054        1.7055871400
O          -2.6802923521        0.2487597170        2.1871179885
N          -2.2572086870        1.5363923325        0.3939950666
H          -2.0523255402        2.4720029508        0.0694521627
CA         -2.5655726826        0.5185239084       -0.6316075855
HA         -3.4410903393       -0.0499343326       -0.3151072651
CB         -2.9199788956        1.2109027502       -1.9601947885
HB2        -3.2143483788        0.4529204935       -2.6889513038
HB3        -2.0349097706        1.7266284526       -2.3388201601
OG         -3.9848060951        2.1480757053       -1.8039949874
HG         -4.1854975807        2.5542277823       -2.6764201528
C          -1.4334338454       -0.5073524426       -0.8673131849
O          -1.5973863528       -1.4510208700       -1.6471379486
N          -0.2775399675       -0.3444225369       -0.2096691093
H          -0.2128184867        0.4305356880        0.4352626706
CA          0.8908761353       -1.2307834132       -0.3366848431
HA          1.0869468796       -1.3904477335       -1.3990304706
CB          2.1241505809       -0.5419843611        0.2814558096
HB2         1.9177575023       -0.2987735307        1.3259103914
HB3         2.9629757208       -1.2405877939        0.2554220179
CG          2.5335860441        0.7357791495       -0.4709544287
HG2         1.7251195158        1.4667152924       -0.4234427398
HG3         2.7256480874        0.4903791393       -1.5167306555
CD          3.7979506236        1.3525936801        0.1422846100
HD2         3.6069249529        1.5981283742        1.1890535843
HD3         4.6137322166        0.6285454197        0.0900222340
CE          4.1886383222        2.6249556724       -0.6230831965
HE2         4.3540353803        2.3677554653       -1.6738606526
HE3         3.3554101457        3.3330865700       -0.5794438154
NZ          5.4137576584        3.2543560516       -0.0606546639
HZ1         5.6582997374        4.0901382009       -0.5746830446
HZ2         6.2031041641        2.6245119617       -0.1069459905
HZ3         5.2794432514        3.5176069817        0.9060715492
C           0.6561425319       -2.6211146497        0.2983396879
O           0.0017277623       -2.7436650014        1.3412429936
N           1.2186888638       -3.6697868082       -0.3151681582
H           1.7492914517       -3.4930757074       -1.1564535322
CH3         1.1203938463       -5.0536331307        0.1441842224
HH31        0.0742151909       -5.3632618118        0.1751795456
HH32        1.5507753392       -5.1469415164        1.1428731627
HH33        1.6633069040       -5.7103928536       -0.5374334545
          45
Energy of minimum      5=    0.3313174650     first found at step       28 after                 9744 function calls
HH31       -3.3639715828        3.0767785467        2.2710901665
CH3        -3.1344912510        2.0117790594        2.2543929008
HH32       -4.0263153467        1.4450115883        2.5208453132
HH33       -2.3440496463        1.8034757757        2.9747939485
C          -2.6686908693        1.6188465120        0.8651747442
O          -3.2714694751        0.7646363018        0.2168325613
N          -1.5761451760        2.2248775165        0.4047610570
H          -1.1070373222        2.8990176490        0.9965058010
CA         -1.0012425170        2.0015108547       -0.9358187238
HA         -1.7994009524        2.0845712897       -1.6753123671
CB          0.0251212037        3.1054610760       -1.2421138368
HB2        -0.4957349567        4.0644016824       -1.2782917646
HB3         0.4691882921        2.9220650744       -2.2225696779
OG          1.0516686528        3.1682896449       -0.2524809894
HG          1.6652694097        3.9028565002       -0.4744637255
C          -0.3706971043        0.6059810112       -1.1307945361
O          -0.1128981883        0.1900453654       -2.2644775508
N          -0.1676324414       -0.1512674624       -0.0436376115
H          -0.3782422159        0.2630689715        0.8545291413
CA          0.3274979154       -1.5376804668       -0.0589847940
HA          0.9939938061       -1.6662775991       -0.9128015155
CB          1.1369218533       -1.7941618114        1.2310242970
HB2         1.5574292297       -2.8004292332        1.1855028187
HB3         0.4561092415       -1.7622870082        2.0837959759
CG          2.2884969492       -0.8064681868        1.5019248672
HG2         1.8823498171        0.1927157926        1.6654628139
HG3         2.7867074886       -1.1159033322        2.4220075284
CD          3.3297108894       -0.7492125018        0.3738055649
HD2         3.7145125817       -1.7539812402        0.1877179275
HD3         2.8636980803       -0.3674806548       -0.5361739022
CE          4.4828823238        0.1803830849        0.7773142617
HE2         4.0773796315        1.1768081369        0.9785187729
HE3         4.9288612900       -0.1926052312        1.7044520815
NZ          5.5234037876        0.2648941005       -0.2826663302
HZ1         5.9257244121       -0.6426246666       -0.4739873902
HZ2         6.2753552768        0.8796670553       -0.0010817580
HZ3         5.1393908100        0.6260436984       -1.1452401641
C          -0.7912795635       -2.5918146096       -0.2440357471
O          -0.4976531383       -3.7843836582       -0.3822362491
N          -2.0640208828       -2.1725079173       -0.2546555255
H          -2.2246774822       -1.1796910589       -0.1405603757
CH3        -3.2317756203       -3.0335997663       -0.4188509102
HH31       -3.2657706329       -3.7736901348        0.3825851865
HH32       -3.1842272641       -3.5481037661       -1.3801995843
HH33       -4.1411558031       -2.4316330901       -0.3838038798
          45
Energy of minimum      6=    0.4638677492     first found at step      360 after               127265 function calls
HH31       -4.6528562036       -2.6476730733        1.2363099399
CH3        -4.3322122795       -1.6528970563        1.5448117410
HH32       -5.1901673576       -1.0972500681        1.9221706640
HH33       -3.5864684235       -1.7418112174        2.3342380433
C          -3.7319266813       -0.9130889137        0.3632269585
O          -3.6624780368       -1.4471578039       -0.7427881525
N          -3.2875015588        0.3208443570        0.5930894124
H          -3.4250231715        0.7141855706        1.5146346070
CA         -2.7480477615        1.2188052616       -0.4487998642
HA         -3.3756240420        1.1449978407       -1.3379610273
CB         -2.8077271012        2.6768970466        0.0407985389
HB2        -2.1242346557        2.7960797138        0.8842175426
HB3        -2.4781891920        3.3362982080       -0.7647360378
OG         -4.1256754941        3.0490757119        0.4421357711
HG         -4.1194484839        3.9879430869        0.7335143509
C          -1.3061492644        0.8843332736       -0.8944857631
O          -0.7991888416        1.4768745293       -1.8522453371
N          -0.6398434745       -0.0662528360       -0.2237661015
H          -1.1281420187       -0.5173864655        0.5390349124
CA          0.7493489179       -0.4872495406       -0.4718550534
HA          0.9264153585       -0.4750930115       -1.5492436432
CB          1.6973650704        0.5365322289        0.1918487129
HB2         1.5602617843        0.5047007416        1.2746910605
HB3         1.4328280259        1.5377400286       -0.1529576402
CG          3.1792364354        0.2923379207       -0.1373138660
HG2         3.4889477957       -0.6751238869        0.2598987689
HG3         3.3113397390        0.2903430118       -1.2205135270
CD          4.0649130577        1.3856277198        0.4758655069
HD2         3.9315831005        1.3906595241        1.5597351674
HD3         3.7662265825        2.3572030228        0.0766294687
CE          5.5395304104        1.1218345572        0.1388729484
HE2         5.8198316126        0.1374706679        0.5263794852
HE3         5.6541667557        1.0979004771       -0.9492415296
NZ          6.4331124632        2.1621975364        0.7156172452
HZ1         6.2052231505        3.0798367218        0.3579489105
HZ2         6.3584394977        2.1914317509        1.7233319915
HZ3         7.3998668543        1.9752038679        0.4854200609
C           1.0000428993       -1.9271031513        0.0315346788
O           0.5306981569       -2.3055368608        1.1112025898
N           1.7431210497       -2.7273676101       -0.7429631777
H           2.0907154016       -2.3516263422       -1.6141410202
CH3         2.0888776364       -4.1100284002       -0.4187071248
HH31        1.1813685013       -4.7073005374       -0.3134191537
HH32        2.6505229770       -4.1450789983        0.5165533371
HH33        2.7016537727       -4.5359870112       -1.2148240493
          45
Energy of minimum      7=    0.4910783385     first found at step       55 after                18827 function calls
HH31       -3.1566662501        2.0432886557        3.1974936161
CH3        -2.4916464114        1.1871832766        3.0879828776
HH32       -2.8445860889        0.3715728059        3.7186790754
HH33       -1.4855607385        1.4724332305        3.3939057191
C          -2.4726732121        0.7465114450        1.6364500599
O          -2.8221038911       -0.3897679089        1.3199973450
N          -2.0474917130        1.6396047914        0.7444396016
H          -1.8166133969        2.5691370285        1.0709187314
CA         -2.0657200992        1.4348302083       -0.7181042392
HA         -3.0771700509        1.1600860426       -1.0203572074
CB         -1.7074032599        2.7505675965       -1.4298561150
HB2        -1.8075112793        2.6101151391       -2.5081206446
HB3        -0.6674124523        3.0009670082       -1.2096373589
OG         -2.5510275540        3.8231161600       -1.0124677756
HG         -2.3027954584        4.6372002027       -1.5044871624
C          -1.1303379492        0.3133420338       -1.2190868844
O          -1.2762716021       -0.1606044179       -2.3492678152
N          -0.1918736922       -0.1502805479       -0.3815870743
H          -0.1164910629        0.2914697576        0.5253928357
CA          0.7046178871       -1.2836576238       -0.6681217477
HA          0.9645230652       -1.2695060281       -1.7282150205
CB          2.0048933671       -1.1094807347        0.1426070510
HB2         2.6402220291       -1.9817977269       -0.0221324020
HB3         1.7648550427       -1.0597779476        1.2066233865
CG          2.7957470969        0.1453818074       -0.2650574348
HG2         2.2005788412        1.0377203553       -0.0660690180
HG3         3.0151050526        0.0993395437       -1.3329903777
CD          4.1129107110        0.2422651191        0.5162984715
HD2         3.8943606993        0.2879752407        1.5852140918
HD3         4.7174817873       -0.6443801059        0.3143698959
CE          4.8853222271        1.4998166065        0.0931827342
HE2         5.0758938354        1.4510883392       -0.9833444554
HE3         4.2606442593        2.3781349934        0.2826957438
NZ          6.1731493816        1.6305324069        0.8264401462
HZ1         6.0216613184        1.6953264614        1.8237984866
HZ2         6.7756865988        0.8378014508        0.6520246859
HZ3         6.6699850364        2.4624160274        0.5372153953
C           0.0583810742       -2.6664891701       -0.4081237049
O           0.6455632968       -3.6959636642       -0.7591268168
N          -1.1393320716       -2.7078873073        0.1911421574
H          -1.5608078274       -1.8229588881        0.4480631120
CH3        -1.8815515812       -3.9259596682        0.5026968259
HH31       -2.0990957921       -4.4757045144       -0.4146860660
HH32       -2.8217079846       -3.6686256498        0.9929974491
HH33       -1.2956097210       -4.5599554165        1.1704347999
          45
Energy of minimum      8=    0.5691386106     first found at step      316 after               110302 function calls
HH31       -4.4202773924        1.9633056934        2.2394894280
CH3        -4.2049600100        0.9619809402        1.8677639136
HH32       -3.5403635044        0.4547482859        2.5664858524
HH33       -5.1349213623        0.4006607187        1.7804684363
C          -3.5312685721        1.0612583451        0.5113772075
O          -4.0386458924        0.5431363303       -0.4822945854
N          -2.3782262665        1.7244513431        0.4638942316
H          -2.0171097143        2.1355524719        1.3154296433
CA         -1.5840799641        1.9404149143       -0.7604722339
HA         -2.2611235493        2.0542336155       -1.6086074993
CB         -0.7989784868        3.2566843367       -0.6235622023
HB2        -0.1812088489        3.4034987485       -1.5116922489
HB3        -1.5122095738        4.0814159324       -0.5658282174
OG          0.0228529905        3.2686717753        0.5437492421
HG          0.4781034492        4.1371474932        0.6054870873
C          -0.6355888427        0.7728804922       -1.1149920120
O          -0.0193537853        0.7760309333       -2.1860277305
N          -0.5338665860       -0.2436735163       -0.2461474822
H          -1.0943030572       -0.1843810346        0.5933014812
CA          0.3366454868       -1.4252027014       -0.3848300269
HA          0.5814421285       -1.5697002197       -1.4389219027
CB          1.6502119269       -1.2030106651        0.3979626534
HB2         2.2355258656       -2.1239457743        0.3600978137
HB3         1.4139300031       -0.9977657549        1.4441549148
CG          2.5190249837       -0.0609896827       -0.1552575351
HG2         2.7235474117       -0.2435731887       -1.2113939450
HG3         1.9881031114        0.8859289000       -0.0538824888
CD          3.8479936251        0.0377869837        0.6054676373
HD2         4.3947883818       -0.9015427154        0.5004180294
HD3         3.6440684702        0.2150244513        1.6634790567
CE          4.6906125708        1.1909418886        0.0424644823
HE2         4.1214830632        2.1210148866        0.1352551800
HE3         4.8668694824        1.0116973459       -1.0225906415
NZ          5.9911926901        1.3236936037        0.7524564684
HZ1         6.5433776764        0.4814112026        0.6654636398
HZ2         5.8537431716        1.5078262043        1.7368849964
HZ3         6.5341314459        2.0866792565        0.3708544146
C          -0.3651483540       -2.7147470205        0.0974074247
O          -1.2214718798       -2.6749962253        0.9895431574
N           0.0102593851       -3.8629848408       -0.4793297514
H           0.7239023497       -3.8189239539       -1.1932910066
CH3        -0.5335377925       -5.1783088182       -0.1466707835
HH31       -0.3444006311       -5.4058593170        0.9039600530
HH32       -1.6097777269       -5.1944361611       -0.3278675493
HH33       -0.0597946132       -5.9428515955       -0.7645429079
          45
Energy of minimum      9=    0.7600712572     first found at step      337 after               118460 function calls
HH31       -3.5625221902       -0.1391300626        2.6294581469
CH3        -4.2627882767        0.1662430272        1.8525544413
HH32       -5.0171020781       -0.6090693014        1.7204725079
HH33       -4.7475179521        1.0953652441        2.1508464095
C          -3.5112554778        0.3839428878        0.5518898511
O          -3.7891573849       -0.2713655210       -0.4515302033
N          -2.5491585032        1.3044723470        0.5637122763
H          -2.4128571997        1.8431611885        1.4087095772
CA         -1.7655430205        1.7013453367       -0.6240102056
HA         -2.4378028042        1.7882833291       -1.4786699602
CB         -1.1310617459        3.0839866779       -0.3903195083
HB2        -0.3942788742        3.0052553509        0.4119991853
HB3        -0.6159595251        3.3971407921       -1.3007650207
OG         -2.1080182907        4.0643716475       -0.0429462467
HG         -1.6627794272        4.9317855195        0.0822997007
C          -0.6647261739        0.6935253780       -1.0246050541
O          -0.0544690385        0.8329805178       -2.0890105690
N          -0.4095481764       -0.3276388860       -0.1940831233
H          -0.9748285917       -0.3897693005        0.6425213198
CA          0.6183372774       -1.3674909293       -0.3817930947
HA          0.8702044441       -1.4372995558       -1.4418749374
CB          1.8950007052       -0.9905996962        0.4025721716
HB2         2.6020664183       -1.8194695125        0.3299461998
HB3         1.6422402560       -0.8561606419        1.4564060844
CG          2.5921326337        0.2790062147       -0.1143198962
HG2         2.8059917375        0.1641818091       -1.1781150496
HG3         1.9378528750        1.1399394818        0.0267531859
CD          3.9053526472        0.5305140142        0.6389133348
HD2         4.5714386579       -0.3231349053        0.4973247049
HD3         3.6929151440        0.6432582208        1.7041080560
CE          4.5805992398        1.8037900048        0.1097180311
HE2         3.8953517871        2.6470139814        0.2400292835
HE3         4.7650611014        1.6855553627       -0.9624962808
NZ          5.8617341985        2.0832983080        0.8125737214
HZ1         6.5190150008        1.3249234155        0.6909773863
HZ2         5.7145414032        2.2141355800        1.8041094957
HZ3         6.2942286102        2.9238760189        0.4534631350
C           0.1104692230       -2.7599689734        0.0553103253
O          -0.7250243881       -2.8743698897        0.9605554400
N           0.6291799962       -3.8213942398       -0.5742013370
H           1.3157521473       -3.6507911416       -1.2956463259
CH3         0.2784852204       -5.2114906885       -0.2893468559
HH31        0.5180495940       -5.4521347113        0.7479970888
HH32       -0.7886626057       -5.3693074750       -0.4557231201
HH33        0.8406351110       -5.8779935481       -0.9454644998
          45
Energy of minimum     10=    0.7798778583     first found at step      302 after               105862 function calls
HH31       -2.7919300719        3.5620021718        1.9444274653
CH3        -2.0776242071        2.8129763201        2.2849699150
HH32       -1.0756963373        3.1032295421        1.9702737407
HH33       -2.1112267310        2.7491135414        3.3723441163
C          -2.4289747965        1.4676320965        1.6764911190
O          -2.6969648763        0.5044342504        2.3929334097
N          -2.4239197800        1.3941645555        0.3475484705
H          -2.2104258179        2.2281360630       -0.1849207170
CA         -2.7615961670        0.1865791713       -0.4298882803
HA         -3.4969732104       -0.4005835543        0.1224197031
CB         -3.4194658169        0.6127903806       -1.7540831796
HB2        -4.3616074598        1.1161052856       -1.5276384915
HB3        -3.6433254972       -0.2749250802       -2.3489592160
OG         -2.5855554100        1.4982006764       -2.5020041419
HG         -3.0463573593        1.7450416675       -3.3342515156
C          -1.5633081726       -0.7536818097       -0.6922571776
O          -1.7324011833       -1.8427911646       -1.2513878102
N          -0.3482367252       -0.3657806104       -0.2809661657
H          -0.2786663930        0.5241705931        0.1910419578
CA          0.8845691254       -1.1507898229       -0.4546743467
HA          0.9271300494       -1.4967445012       -1.4895193959
CB          2.1075592237       -0.2466883899       -0.1992684197
HB2         2.0423086819        0.1647309275        0.8095788625
HB3         3.0104304147       -0.8577356720       -0.2609189709
CG          2.2233884544        0.8963349120       -1.2254461948
HG2         2.2048031126        0.4691298660       -2.2291835672
HG3         1.3716151051        1.5706684794       -1.1262801400
CD          3.5191319307        1.7086550672       -1.0748422870
HD2         4.3751613629        1.0374177369       -1.1694397661
HD3         3.5622609722        2.4339521427       -1.8897862222
CE          3.5881637096        2.4543820243        0.2675547014
HE2         2.7036012480        3.0918564725        0.3623200173
HE3         3.5655467320        1.7251496181        1.0828602485
NZ          4.8187312216        3.2842043943        0.3743393225
HZ1         4.8518229306        3.7692058010        1.2611539520
HZ2         4.8548919942        3.9813626179       -0.3569450231