    38
 Energy=    -170.940862382370
AX            0.6549862863        0.3704253565       -1.5484207730
AX            1.0864386750       -0.8129838511        1.0881388050
AX           -0.0403014519       -1.7392800140        0.3839033428
AX            1.2049254220       -0.9442706736       -0.8206630460
AX           -1.6129364970       -0.7315358243       -0.0709958500
AX           -0.0744905739        1.1792228750       -1.2197379110
AX            1.3237219510        0.2899283828        1.0707385260
AX           -1.5428568190       -0.1871375657        0.8924945809
AX           -0.4838196143        0.6336155017        1.6256232030
AX            1.2710832530        1.7661745500       -0.2699990310
AX            0.1308624258        1.6542014850       -0.1975872229
AX           -0.8706609842       -1.5125968180       -0.3262628842
AX            0.8756030819        1.3431924710        0.6650743077
AX           -0.6550661565       -0.9852903373       -1.2756031060
AX           -0.9676793467        1.4171409090       -0.0574572757
AX           -1.1124938280        0.8645554020       -1.0113800930
AX           -1.2618970270        0.8867902419        0.8820966474
AX            0.9968359162       -1.4223755930        0.1587512486
AX           -1.4021367060       -0.2099740931       -1.0230099550
AX            1.5854329960        0.7171246030        0.0863389811
AX           -0.7183977478       -0.4372028101        1.5920494370
AX            0.0649012264       -1.1699012960        1.3288213430
AX            0.3840259492       -0.7042427186       -1.5337235590
AX            1.4956627740        0.1182034942       -0.8622155174
AX           -0.2018657319        1.1312198540        0.6936109171
AX            0.1680069645       -1.2262315460       -0.5704188143
AX            0.7518569289        0.8668461891       -0.5836133961
AX            1.2865938940       -0.3492785277        0.1182454187
AX           -0.3662762085        0.0879354818       -1.2689370070
AX            0.3069716174       -0.0762933495        1.3301135520
AX           -1.3227608270        0.3398123611       -0.0668282025
AX           -0.7887395629       -0.9682062498        0.6313976169
AX           -0.5146001699        0.0930695504        0.6340566623
AX            0.2411408058       -0.6616039916        0.3763356627
AX            0.5182227876        0.3793921591        0.3573216382
AX            0.4515417631       -0.1699495138       -0.5818746031
AX           -0.5757024400       -0.4421641188       -0.3186014551
AX           -0.2861330262        0.6116680231       -0.3077821889
    38
 Energy=    -170.940861136750
AX            0.6549864468        0.3704309969       -1.5484857120
AX            1.0864742310       -0.8129163335        1.0881977460
AX           -0.0403762688       -1.7392891250        0.3838667166
AX            1.2049308830       -0.9443510672       -0.8205618987
AX           -1.6129578370       -0.7315322524       -0.0710249697
AX           -0.0745306665        1.1792386890       -1.2197604730
AX            1.3237285920        0.2900193963        1.0707096420
AX           -1.5428449190       -0.1871770291        0.8924926105
AX           -0.4838654696        0.6335828394        1.6256687610
AX            1.2710577000        1.7661388630       -0.2700217416
AX            0.1308574187        1.6541646080       -0.1975839813
AX           -0.8706931444       -1.5125612390       -0.3263440420
AX            0.8756379552        1.3431840010        0.6650796790
AX           -0.6550088022       -0.9852371197       -1.2756488780
AX           -0.9676809358        1.4171456240       -0.0573963423
AX           -1.1125120510        0.8645691541       -1.0113367860
AX           -1.2619007760        0.8867595139        0.8821172138
AX            0.9967863979       -1.4223945130        0.1588664894
AX           -1.4021139700       -0.2099676900       -1.0230255230
AX            1.5854114460        0.7171101368        0.0862525981
AX           -0.7183544016       -0.4372498025        1.5920259120
AX            0.0649478154       -1.1699179210        1.3287852050
AX            0.3841046031       -0.7042388276       -1.5336951550
AX            1.4956248190        0.1181266368       -0.8622508779
AX           -0.2018447425        1.1312251640        0.6936708454
AX            0.1679964167       -1.2262185340       -0.5703985860
AX            0.7518348283        0.8668329679       -0.5836893105
AX            1.2865950650       -0.3492862662        0.1182752095
AX           -0.3662495690        0.0879676583       -1.2689205630
AX            0.3069887460       -0.0762474212        1.3301123200
AX           -1.3227670800        0.3398011670       -0.0668146841
AX           -0.7887432226       -0.9682072177        0.6313586889
AX           -0.5145932046        0.0930806410        0.6340664931
AX            0.2411425028       -0.6615820124        0.3763500652
AX            0.5182275590        0.3794138797        0.3572989620
AX            0.4515477499       -0.1699559938       -0.5818646138
AX           -0.5756986194       -0.4421468368       -0.3186015195
AX           -0.2861454954        0.6116852647       -0.3077695000
    38
 Energy=    -170.920653505854
AX            0.6548808413        0.3621987163       -1.5540980530
AX            1.0871220750       -0.8230730650        1.0841010410
AX           -0.0384788868       -1.7346957300        0.3879175955
AX            1.2041798470       -0.9420071357       -0.8259556736
AX           -1.6123550980       -0.7310910828       -0.0673914008
AX           -0.0791575381        1.1687591100       -1.2395186800
AX            1.3321383030        0.2735535495        1.0670835690
AX           -1.5386335660       -0.1802780638        0.8922147249
AX           -0.4598014619        0.6509696483        1.6143716510
AX            1.2334152940        1.7639902650       -0.1930351564
AX            0.1089294496        1.6598887010       -0.2275739502
AX           -0.8700420352       -1.5121273800       -0.3200054686
AX            0.8913109117        1.3088437890        0.7512070450
AX           -0.6586701006       -0.9916873601       -1.2736046060
AX           -0.9775936413        1.4140926340       -0.0661872004
AX           -1.1156132220        0.8586523137       -1.0185279130
AX           -1.2520119260        0.8911364282        0.8806297344
AX            0.9976825699       -1.4242782680        0.1518358023
AX           -1.4043292660       -0.2150183102       -1.0223879890
AX            1.5745094760        0.7191979743        0.0890363760
AX           -0.7119192864       -0.4185072694        1.5910819170
AX            0.0628830480       -1.1627064380        1.3312719450
AX            0.3796721362       -0.7105669181       -1.5359861660
AX            1.4950923570        0.1216812841       -0.8617133010
AX           -0.1948618921        1.1417462030        0.6742782551
AX            0.1675730292       -1.2256187080       -0.5704163460
AX            0.7497622374        0.8743714246       -0.5957480329
AX            1.2871089280       -0.3519505761        0.1151918480
AX           -0.3688961463        0.0807975035       -1.2743384820
AX            0.3154522870       -0.0737508669        1.3226141430
AX           -1.3218718190        0.3397800135       -0.0686775416
AX           -0.7858261592       -0.9606008704        0.6340947447
AX           -0.5084015760        0.1003612954        0.6290767211
AX            0.2440702669       -0.6588273039        0.3738421094
AX            0.5226493767        0.3842255024        0.3487200662
AX            0.4517564713       -0.1680453820       -0.5863548373
AX           -0.5751069002       -0.4418014155       -0.3197450629
AX           -0.2866183845        0.6123857869       -0.3173034275
    38
 Energy=    -170.925184343243
AX            0.6555511509        0.3596968791       -1.5548721810
AX            1.0869634520       -0.8288621061        1.0827354080
AX           -0.0380598146       -1.7331011560        0.3892167516
AX            1.2040733020       -0.9407464519       -0.8276604403
AX           -1.6122316080       -0.7307830966       -0.0660030954
AX           -0.0806944752        1.1636217680       -1.2488019310
AX            1.3386220290        0.2624875060        1.0665484910
AX           -1.5367458980       -0.1773669650        0.8922252401
AX           -0.4481197056        0.6584601578        1.6079938320
AX            1.2117597260        1.7597186800       -0.1624829464
AX            0.0955378323        1.6651997910       -0.2473000352
AX           -0.8698898408       -1.5116393470       -0.3178986172
AX            0.8949018347        1.2915911070        0.7831847434
AX           -0.6597168621       -0.9937651365       -1.2729195730
AX           -0.9826730478        1.4128699380       -0.0687425679
AX           -1.1164540280        0.8567039290       -1.0209920320
AX           -1.2463819610        0.8931800463        0.8802676183
AX            0.9978356001       -1.4255328420        0.1489918567
AX           -1.4049397040       -0.2166728692       -1.0220537980
AX            1.5709534540        0.7207930651        0.0917549416
AX           -0.7089560847       -0.4107247098        1.5906076590
AX            0.0616479422       -1.1606004720        1.3323925610
AX            0.3785256100       -0.7123998756       -1.5365193810
AX            1.4944051750        0.1240020556       -0.8602825896
AX           -0.1879756168        1.1484140490        0.6644141992
AX            0.1674253486       -1.2251850850       -0.5704370453
AX            0.7481983322        0.8791879312       -0.5982356772
AX            1.2871617440       -0.3532365540        0.1143430452
AX           -0.3696433040        0.0780330333       -1.2759655100
AX            0.3194415779       -0.0736982005        1.3203851020
AX           -1.3213934700        0.3396155732       -0.0691753996
AX           -0.7847774742       -0.9574685248        0.6350537808
AX           -0.5051867825        0.1037848274        0.6271592750
AX            0.2452646296       -0.6576800759        0.3731675561
AX            0.5251690638        0.3870512077        0.3475436979
AX            0.4518822039       -0.1666208736       -0.5869570352
AX           -0.5748335619       -0.4414838174       -0.3199565592
AX           -0.2866467667        0.6131566138       -0.3207293426
    38
 Energy=    -173.928426557155
AX            0.6511505901        0.3226437325       -1.5914587880
AX            1.1150496210       -0.8405567759        1.0540107820
AX           -0.0218666066       -1.6995184580        0.4147096469
AX            1.1964212180       -0.9443220205       -0.8588905028
AX           -1.6004654190       -0.7060188938       -0.0297795610
AX           -0.0858234002        1.1150071090       -1.3454471090
AX            1.4123243390        0.2275832491        1.0071542600
AX           -1.4922567300       -0.1186454279        0.9055150658
AX           -0.3553209960        0.7403269811        1.5448324760
AX            0.8670683619        1.4945350590        0.2745946912
AX            0.0218683681        1.6995271040       -0.4146854812
AX           -0.8670559231       -1.4945367160       -0.2745822119
AX            0.6789278403        1.0161043450        1.2519770450
AX           -0.6789186082       -1.0161078540       -1.2519724640
AX           -1.0073671080        1.4250773480       -0.1232570717
AX           -1.1150576350        0.8405566042       -1.0540197090
AX           -1.1964179540        0.9443114241        0.8588883717
AX            1.0073661960       -1.4250886660        0.1232577827
AX           -1.4123234600       -0.2275870451       -1.0071664340
AX            1.6004713450        0.7060167173        0.0297725022
AX           -0.6511597753       -0.3226276680        1.5914625700
AX            0.0858170835       -1.1149879700        1.3454633230
AX            0.3553268396       -0.7403230757       -1.5448366160
AX            1.4922477760        0.1186419380       -0.9055185644
AX           -0.1645393018        1.2150540500        0.5631076942
AX            0.1645454642       -1.2150619930       -0.5631066387
AX            0.7547724443        0.9057245988       -0.6561318615
AX            1.2987168400       -0.3581696655        0.0746609355
AX           -0.3794040643        0.0488335964       -1.2939084830
AX            0.3794011210       -0.0488287473        1.2939010980
AX           -1.2987202070        0.3581642954       -0.0746700979
AX           -0.7547741200       -0.9057201143        0.6561389651
AX           -0.4578473046        0.1540570407        0.6072156979
AX            0.2708995743       -0.6294551205        0.3639574400
AX            0.5648532038        0.4267553647        0.3176262575
AX            0.4578450736       -0.1540590435       -0.6072212810
AX           -0.5648512993       -0.4267589202       -0.3176320719
AX           -0.2709033867        0.6294536174       -0.3639616567
    38
 Energy=    -173.928426590571
AX            0.6511536815        0.3226373873       -1.5914596940
AX            1.1150567210       -0.8405573775        1.0540170240
AX           -0.0218686732       -1.6995251210        0.4146991563
AX            1.1964195270       -0.9443168661       -0.8588866915
AX           -1.6004663420       -0.7060187479       -0.0297776037
AX           -0.0858234472        1.1149989060       -1.3454557100
AX            1.4123282180        0.2275832903        1.0071624690
AX           -1.4922496360       -0.1186441506        0.9055141152
AX           -0.3553239459        0.7403240563        1.5448319500
AX            0.8670629177        1.4945382060        0.2745889494
AX            0.0218692267        1.6995254530       -0.4146992446
AX           -0.8670625152       -1.4945382690       -0.2745887412
AX            0.6789246165        1.0161030090        1.2519734470
AX           -0.6789248313       -1.0161032620       -1.2519733060
AX           -1.0073644750        1.4250835400       -0.1232607262
AX           -1.1150571120        0.8405569938       -1.0540171970
AX           -1.1964193750        0.9443173010        0.8588860581
AX            1.0073648550       -1.4250833790        0.1232600804
AX           -1.4123285320       -0.2275837205       -1.0071621460
AX            1.6004665660        0.7060185894        0.0297780044
AX           -0.6511540658       -0.3226373732        1.5914598680
AX            0.0858231004       -1.1149990260        1.3454560160
AX            0.3553236062       -0.7403240356       -1.5448322930
AX            1.4922496790        0.1186445289       -0.9055141160
AX           -0.1645416609        1.2150581270        0.5631048151
AX            0.1645419250       -1.2150579120       -0.5631050631
AX            0.7547712144        0.9057235084       -0.6561347090
AX            1.2987180900       -0.3581671257        0.0746668620
AX           -0.3794052800        0.0488324969       -1.2939065290
AX            0.3794049613       -0.0488326932        1.2939068210
AX           -1.2987180370        0.3581671100       -0.0746669956
AX           -0.7547711343       -0.9057234874        0.6561349145
AX           -0.4578449811        0.1540577441        0.6072174235
AX            0.2709016667       -0.6294547842        0.3639608683
AX            0.5648533456        0.4267569784        0.3176293314
AX            0.4578450474       -0.1540576757       -0.6072174157
AX           -0.5648533035       -0.4267570526       -0.3176291593
AX           -0.2709016180        0.6294548341       -0.3639608319
    38
 Energy=    -173.928426590626
AX            0.6511538416        0.3226375329       -1.5914598040
AX            1.1150567950       -0.8405574850        1.0540171310
AX           -0.0218685594       -1.6995255470        0.4146992826
AX            1.1964195430       -0.9443172770       -0.8588864439
AX           -1.6004661360       -0.7060185129       -0.0297775739
AX           -0.0858232899        1.1149992540       -1.3454559650
AX            1.4123281510        0.2275832546        1.0071622190
AX           -1.4922494180       -0.1186440304        0.9055141516
AX           -0.3553240165        0.7403240050        1.5448320270
AX            0.8670625401        1.4945381770        0.2745887765
AX            0.0218687773        1.6995255650       -0.4146992419
AX           -0.8670624511       -1.4945382310       -0.2745885987
AX            0.6789244902        1.0161029460        1.2519732590
AX           -0.6789245897       -1.0161030470       -1.2519731610
AX           -1.0073648260        1.4250837550       -0.1232605745
AX           -1.1150568900        0.8405573658       -1.0540172360
AX           -1.1964195530        0.9443174762        0.8588862316
AX            1.0073649800       -1.4250837150        0.1232603215
AX           -1.4123282210       -0.2275833742       -1.0071621530
AX            1.6004661830        0.7060185083        0.0297777252
AX           -0.6511538810       -0.3226375180        1.5914598650
AX            0.0858232488       -1.1149992490        1.3454560250
AX            0.3553238506       -0.7403239857       -1.5448320880
AX            1.4922494750        0.1186442016       -0.9055141212
AX           -0.1645419746        1.2150581120        0.5631048355
AX            0.1645419887       -1.2150581130       -0.5631048902
AX            0.7547709572        0.9057235280       -0.6561348914
AX            1.2987179580       -0.3581673252        0.0746668830
AX           -0.3794050734        0.0488327199       -1.2939066830
AX            0.3794049816       -0.0488328019        1.2939067010
AX           -1.2987179500        0.3581673643       -0.0746669240
AX           -0.7547709228       -0.9057235294        0.6561349472
AX           -0.4578450231        0.1540577668        0.6072174055
AX            0.2709016785       -0.6294550059        0.3639609064
AX            0.5648531395        0.4267569037        0.3176291967
AX            0.4578450015       -0.1540577525       -0.6072174384
AX           -0.5648531264       -0.4267569393       -0.3176291854
AX           -0.2709016781        0.6294550027       -0.3639609151
    38
 Energy=    -173.928426590627
AX            0.6511538339        0.3226375314       -1.5914598300
AX            1.1150568160       -0.8405574905        1.0540171370
AX           -0.0218685854       -1.6995255420        0.4146992854
AX            1.1964195430       -0.9443173070       -0.8588864229
AX           -1.6004661200       -0.7060185053       -0.0297775968
AX           -0.0858232947        1.1149992510       -1.3454559820
AX            1.4123281480        0.2275832455        1.0071622160
AX           -1.4922494350       -0.1186440539        0.9055141639
AX           -0.3553240032        0.7403239814        1.5448320180
AX            0.8670625269        1.4945381900        0.2745887320
AX            0.0218687472        1.6995255630       -0.4146992608
AX           -0.8670624540       -1.4945382150       -0.2745886093
AX            0.6789245049        1.0161029490        1.2519732290
AX           -0.6789245767       -1.0161030350       -1.2519731680
AX           -1.0073648490        1.4250837600       -0.1232605536
AX           -1.1150568780        0.8405573928       -1.0540172270
AX           -1.1964195540        0.9443174645        0.8588862591
AX            1.0073649550       -1.4250837260        0.1232603529
AX           -1.4123282090       -0.2275833442       -1.0071621490
AX            1.6004661520        0.7060185050        0.0297777234
AX           -0.6511538697       -0.3226375293        1.5914598750
AX            0.0858232607       -1.1149992670        1.3454560330
AX            0.3553238789       -0.7403239751       -1.5448320810
AX            1.4922494770        0.1186441895       -0.9055141304
AX           -0.1645419814        1.2150581130        0.5631048224
AX            0.1645420059       -1.2150581020       -0.5631048681
AX            0.7547709543        0.9057235334       -0.6561348818
AX            1.2987179560       -0.3581673324        0.0746669022
AX           -0.3794050428        0.0488327470       -1.2939066870
AX            0.3794049825       -0.0488327968        1.2939067020
AX           -1.2987179540        0.3581673555       -0.0746669392
AX           -0.7547709237       -0.9057235284        0.6561349477
AX           -0.4578450100        0.1540577680        0.6072174233
AX            0.2709016904       -0.6294550118        0.3639609030
AX            0.5648531342        0.4267569018        0.3176291952
AX            0.4578449978       -0.1540577542       -0.6072174385
AX           -0.5648531404       -0.4267569250       -0.3176291735
AX           -0.2709016854        0.6294549993       -0.3639609227
