    38
Energy=    -173.928426590627    
AX        0.6511538339        0.3226375314        -1.591459830    
AX         1.115056816       -0.8405574905         1.054017137    
AX       -0.2186858535E-01    -1.699525542        0.4146992854    
AX         1.196419543       -0.9443173070       -0.8588864229    
AX        -1.600466120       -0.7060185053       -0.2977759680E-01
AX       -0.8582329468E-01     1.114999251        -1.345455982    
AX         1.412328148        0.2275832455         1.007162216    
AX        -1.492249435       -0.1186440539        0.9055141639    
AX       -0.3553240032        0.7403239814         1.544832018    
AX        0.8670625269         1.494538190        0.2745887320    
AX        0.2186874722E-01     1.699525563       -0.4146992608    
AX       -0.8670624540        -1.494538215       -0.2745886093    
AX        0.6789245049         1.016102949         1.251973229    
AX       -0.6789245767        -1.016103035        -1.251973168    
AX        -1.007364849         1.425083760       -0.1232605536    
AX        -1.115056878        0.8405573928        -1.054017227    
AX        -1.196419554        0.9443174645        0.8588862591    
AX         1.007364955        -1.425083726        0.1232603529    
AX        -1.412328209       -0.2275833442        -1.007162149    
AX         1.600466152        0.7060185050        0.2977772342E-01
AX       -0.6511538697       -0.3226375293         1.591459875    
AX        0.8582326068E-01    -1.114999267         1.345456033    
AX        0.3553238789       -0.7403239751        -1.544832081    
AX         1.492249477        0.1186441895       -0.9055141304    
AX       -0.1645419814         1.215058113        0.5631048224    
AX        0.1645420059        -1.215058102       -0.5631048681    
AX        0.7547709543        0.9057235334       -0.6561348818    
AX         1.298717956       -0.3581673324        0.7466690222E-01
AX       -0.3794050428        0.4883274703E-01    -1.293906687    
AX        0.3794049825       -0.4883279683E-01     1.293906702    
AX        -1.298717954        0.3581673555       -0.7466693916E-01
AX       -0.7547709237       -0.9057235284        0.6561349477    
AX       -0.4578450100        0.1540577680        0.6072174233    
AX        0.2709016904       -0.6294550118        0.3639609030    
AX        0.5648531342        0.4267569018        0.3176291952    
AX        0.4578449978       -0.1540577542       -0.6072174385    
AX       -0.5648531404       -0.4267569250       -0.3176291735    
AX       -0.2709016854        0.6294549993       -0.3639609227    
    38
Energy=    -173.928426590626    
AX        0.6511538416        0.3226375329        -1.591459804    
AX         1.115056795       -0.8405574850         1.054017131    
AX       -0.2186855945E-01    -1.699525547        0.4146992826    
AX         1.196419543       -0.9443172770       -0.8588864439    
AX        -1.600466136       -0.7060185129       -0.2977757388E-01
AX       -0.8582328992E-01     1.114999254        -1.345455965    
AX         1.412328151        0.2275832546         1.007162219    
AX        -1.492249418       -0.1186440304        0.9055141516    
AX       -0.3553240165        0.7403240050         1.544832027    
AX        0.8670625401         1.494538177        0.2745887765    
AX        0.2186877731E-01     1.699525565       -0.4146992419    
AX       -0.8670624511        -1.494538231       -0.2745885987    
AX        0.6789244902         1.016102946         1.251973259    
AX       -0.6789245897        -1.016103047        -1.251973161    
AX        -1.007364826         1.425083755       -0.1232605745    
AX        -1.115056890        0.8405573658        -1.054017236    
AX        -1.196419553        0.9443174762        0.8588862316    
AX         1.007364980        -1.425083715        0.1232603215    
AX        -1.412328221       -0.2275833742        -1.007162153    
AX         1.600466183        0.7060185083        0.2977772521E-01
AX       -0.6511538810       -0.3226375180         1.591459865    
AX        0.8582324884E-01    -1.114999249         1.345456025    
AX        0.3553238506       -0.7403239857        -1.544832088    
AX         1.492249475        0.1186442016       -0.9055141212    
AX       -0.1645419746         1.215058112        0.5631048355    
AX        0.1645419887        -1.215058113       -0.5631048902    
AX        0.7547709572        0.9057235280       -0.6561348914    
AX         1.298717958       -0.3581673252        0.7466688297E-01
AX       -0.3794050734        0.4883271993E-01    -1.293906683    
AX        0.3794049816       -0.4883280185E-01     1.293906701    
AX        -1.298717950        0.3581673643       -0.7466692405E-01
AX       -0.7547709228       -0.9057235294        0.6561349472    
AX       -0.4578450231        0.1540577668        0.6072174055    
AX        0.2709016785       -0.6294550059        0.3639609064    
AX        0.5648531395        0.4267569037        0.3176291967    
AX        0.4578450015       -0.1540577525       -0.6072174384    
AX       -0.5648531264       -0.4267569393       -0.3176291854    
AX       -0.2709016781        0.6294550027       -0.3639609151    
    38
Energy=    -173.928426590571    
AX        0.6511536815        0.3226373873        -1.591459694    
AX         1.115056721       -0.8405573775         1.054017024    
AX       -0.2186867324E-01    -1.699525121        0.4146991563    
AX         1.196419527       -0.9443168661       -0.8588866915    
AX        -1.600466342       -0.7060187479       -0.2977760368E-01
AX       -0.8582344717E-01     1.114998906        -1.345455710    
AX         1.412328218        0.2275832903         1.007162469    
AX        -1.492249636       -0.1186441506        0.9055141152    
AX       -0.3553239459        0.7403240563         1.544831950    
AX        0.8670629177         1.494538206        0.2745889494    
AX        0.2186922671E-01     1.699525453       -0.4146992446    
AX       -0.8670625152        -1.494538269       -0.2745887412    
AX        0.6789246165         1.016103009         1.251973447    
AX       -0.6789248313        -1.016103262        -1.251973306    
AX        -1.007364475         1.425083540       -0.1232607262    
AX        -1.115057112        0.8405569938        -1.054017197    
AX        -1.196419375        0.9443173010        0.8588860581    
AX         1.007364855        -1.425083379        0.1232600804    
AX        -1.412328532       -0.2275837205        -1.007162146    
AX         1.600466566        0.7060185894        0.2977800439E-01
AX       -0.6511540658       -0.3226373732         1.591459868    
AX        0.8582310036E-01    -1.114999026         1.345456016    
AX        0.3553236062       -0.7403240356        -1.544832293    
AX         1.492249679        0.1186445289       -0.9055141160    
AX       -0.1645416609         1.215058127        0.5631048151    
AX        0.1645419250        -1.215057912       -0.5631050631    
AX        0.7547712144        0.9057235084       -0.6561347090    
AX         1.298718090       -0.3581671257        0.7466686197E-01
AX       -0.3794052800        0.4883249691E-01    -1.293906529    
AX        0.3794049613       -0.4883269321E-01     1.293906821    
AX        -1.298718037        0.3581671100       -0.7466699557E-01
AX       -0.7547711343       -0.9057234874        0.6561349145    
AX       -0.4578449811        0.1540577441        0.6072174235    
AX        0.2709016667       -0.6294547842        0.3639608683    
AX        0.5648533456        0.4267569784        0.3176293314    
AX        0.4578450474       -0.1540576757       -0.6072174157    
AX       -0.5648533035       -0.4267570526       -0.3176291593    
AX       -0.2709016180        0.6294548341       -0.3639608319    
    38
Energy=    -173.928426557155    
AX        0.6511505901        0.3226437325        -1.591458788    
AX         1.115049621       -0.8405567759         1.054010782    
AX       -0.2186660661E-01    -1.699518458        0.4147096469    
AX         1.196421218       -0.9443220205       -0.8588905028    
AX        -1.600465419       -0.7060188938       -0.2977956097E-01
AX       -0.8582340024E-01     1.115007109        -1.345447109    
AX         1.412324339        0.2275832491         1.007154260    
AX        -1.492256730       -0.1186454279        0.9055150658    
AX       -0.3553209960        0.7403269811         1.544832476    
AX        0.8670683619         1.494535059        0.2745946912    
AX        0.2186836810E-01     1.699527104       -0.4146854812    
AX       -0.8670559231        -1.494536716       -0.2745822119    
AX        0.6789278403         1.016104345         1.251977045    
AX       -0.6789186082        -1.016107854        -1.251972464    
AX        -1.007367108         1.425077348       -0.1232570717    
AX        -1.115057635        0.8405566042        -1.054019709    
AX        -1.196417954        0.9443114241        0.8588883717    
AX         1.007366196        -1.425088666        0.1232577827    
AX        -1.412323460       -0.2275870451        -1.007166434    
AX         1.600471345        0.7060167173        0.2977250221E-01
AX       -0.6511597753       -0.3226276680         1.591462570    
AX        0.8581708352E-01    -1.114987970         1.345463323    
AX        0.3553268396       -0.7403230757        -1.544836616    
AX         1.492247776        0.1186419380       -0.9055185644    
AX       -0.1645393018         1.215054050        0.5631076942    
AX        0.1645454642        -1.215061993       -0.5631066387    
AX        0.7547724443        0.9057245988       -0.6561318615    
AX         1.298716840       -0.3581696655        0.7466093550E-01
AX       -0.3794040643        0.4883359644E-01    -1.293908483    
AX        0.3794011210       -0.4882874726E-01     1.293901098    
AX        -1.298720207        0.3581642954       -0.7467009791E-01
AX       -0.7547741200       -0.9057201143        0.6561389651    
AX       -0.4578473046        0.1540570407        0.6072156979    
AX        0.2708995743       -0.6294551205        0.3639574400    
AX        0.5648532038        0.4267553647        0.3176262575    
AX        0.4578450736       -0.1540590435       -0.6072212810    
AX       -0.5648512993       -0.4267589202       -0.3176320719    
AX       -0.2709033867        0.6294536174       -0.3639616567    
    38
Energy=    -170.925184343243    
AX        0.6555511509        0.3596968791        -1.554872181    
AX         1.086963452       -0.8288621061         1.082735408    
AX       -0.3805981461E-01    -1.733101156        0.3892167516    
AX         1.204073302       -0.9407464519       -0.8276604403    
AX        -1.612231608       -0.7307830966       -0.6600309544E-01
AX       -0.8069447515E-01     1.163621768        -1.248801931    
AX         1.338622029        0.2624875060         1.066548491    
AX        -1.536745898       -0.1773669650        0.8922252401    
AX       -0.4481197056        0.6584601578         1.607993832    
AX         1.211759726         1.759718680       -0.1624829464    
AX        0.9553783227E-01     1.665199791       -0.2473000352    
AX       -0.8698898408        -1.511639347       -0.3178986172    
AX        0.8949018347         1.291591107        0.7831847434    
AX       -0.6597168621       -0.9937651365        -1.272919573    
AX       -0.9826730478         1.412869938       -0.6874256787E-01
AX        -1.116454028        0.8567039290        -1.020992032    
AX        -1.246381961        0.8931800463        0.8802676183    
AX        0.9978356001        -1.425532842        0.1489918567    
AX        -1.404939704       -0.2166728692        -1.022053798    
AX         1.570953454        0.7207930651        0.9175494161E-01
AX       -0.7089560847       -0.4107247098         1.590607659    
AX        0.6164794224E-01    -1.160600472         1.332392561    
AX        0.3785256100       -0.7123998756        -1.536519381    
AX         1.494405175        0.1240020556       -0.8602825896    
AX       -0.1879756168         1.148414049        0.6644141992    
AX        0.1674253486        -1.225185085       -0.5704370453    
AX        0.7481983322        0.8791879312       -0.5982356772    
AX         1.287161744       -0.3532365540        0.1143430452    
AX       -0.3696433040        0.7803303333E-01    -1.275965510    
AX        0.3194415779       -0.7369820052E-01     1.320385102    
AX        -1.321393470        0.3396155732       -0.6917539956E-01
AX       -0.7847774742       -0.9574685248        0.6350537808    
AX       -0.5051867825        0.1037848274        0.6271592750    
AX        0.2452646296       -0.6576800759        0.3731675561    
AX        0.5251690638        0.3870512077        0.3475436979    
AX        0.4518822039       -0.1666208736       -0.5869570352    
AX       -0.5748335619       -0.4414838174       -0.3199565592    
AX       -0.2866467667        0.6131566138       -0.3207293426    
    38
Energy=    -170.920653505854    
AX        0.6548808413        0.3621987163        -1.554098053    
AX         1.087122075       -0.8230730650         1.084101041    
AX       -0.3847888675E-01    -1.734695730        0.3879175955    
AX         1.204179847       -0.9420071357       -0.8259556736    
AX        -1.612355098       -0.7310910828       -0.6739140082E-01
AX       -0.7915753806E-01     1.168759110        -1.239518680    
AX         1.332138303        0.2735535495         1.067083569    
AX        -1.538633566       -0.1802780638        0.8922147249    
AX       -0.4598014619        0.6509696483         1.614371651    
AX         1.233415294         1.763990265       -0.1930351564    
AX        0.1089294496         1.659888701       -0.2275739502    
AX       -0.8700420352        -1.512127380       -0.3200054686    
AX        0.8913109117         1.308843789        0.7512070450    
AX       -0.6586701006       -0.9916873601        -1.273604606    
AX       -0.9775936413         1.414092634       -0.6618720042E-01
AX        -1.115613222        0.8586523137        -1.018527913    
AX        -1.252011926        0.8911364282        0.8806297344    
AX        0.9976825699        -1.424278268        0.1518358023    
AX        -1.404329266       -0.2150183102        -1.022387989    
AX         1.574509476        0.7191979743        0.8903637599E-01
AX       -0.7119192864       -0.4185072694         1.591081917    
AX        0.6288304796E-01    -1.162706438         1.331271945    
AX        0.3796721362       -0.7105669181        -1.535986166    
AX         1.495092357        0.1216812841       -0.8617133010    
AX       -0.1948618921         1.141746203        0.6742782551    
AX        0.1675730292        -1.225618708       -0.5704163460    
AX        0.7497622374        0.8743714246       -0.5957480329    
AX         1.287108928       -0.3519505761        0.1151918480    
AX       -0.3688961463        0.8079750346E-01    -1.274338482    
AX        0.3154522870       -0.7375086688E-01     1.322614143    
AX        -1.321871819        0.3397800135       -0.6867754156E-01
AX       -0.7858261592       -0.9606008704        0.6340947447    
AX       -0.5084015760        0.1003612954        0.6290767211    
AX        0.2440702669       -0.6588273039        0.3738421094    
AX        0.5226493767        0.3842255024        0.3487200662    
AX        0.4517564713       -0.1680453820       -0.5863548373    
AX       -0.5751069002       -0.4418014155       -0.3197450629    
AX       -0.2866183845        0.6123857869       -0.3173034275    
    38
Energy=    -170.940861136750    
AX        0.6549864468        0.3704309969        -1.548485712    
AX         1.086474231       -0.8129163335         1.088197746    
AX       -0.4037626876E-01    -1.739289125        0.3838667166    
AX         1.204930883       -0.9443510672       -0.8205618987    
AX        -1.612957837       -0.7315322524       -0.7102496965E-01
AX       -0.7453066647E-01     1.179238689        -1.219760473    
AX         1.323728592        0.2900193963         1.070709642    
AX        -1.542844919       -0.1871770291        0.8924926105    
AX       -0.4838654696        0.6335828394         1.625668761    
AX         1.271057700         1.766138863       -0.2700217416    
AX        0.1308574187         1.654164608       -0.1975839813    
AX       -0.8706931444        -1.512561239       -0.3263440420    
AX        0.8756379552         1.343184001        0.6650796790    
AX       -0.6550088022       -0.9852371197        -1.275648878    
AX       -0.9676809358         1.417145624       -0.5739634232E-01
AX        -1.112512051        0.8645691541        -1.011336786    
AX        -1.261900776        0.8867595139        0.8821172138    
AX        0.9967863979        -1.422394513        0.1588664894    
AX        -1.402113970       -0.2099676900        -1.023025523    
AX         1.585411446        0.7171101368        0.8625259806E-01
AX       -0.7183544016       -0.4372498025         1.592025912    
AX        0.6494781542E-01    -1.169917921         1.328785205    
AX        0.3841046031       -0.7042388276        -1.533695155    
AX         1.495624819        0.1181266368       -0.8622508779    
AX       -0.2018447425         1.131225164        0.6936708454    
AX        0.1679964167        -1.226218534       -0.5703985860    
AX        0.7518348283        0.8668329679       -0.5836893105    
AX         1.286595065       -0.3492862662        0.1182752095    
AX       -0.3662495690        0.8796765831E-01    -1.268920563    
AX        0.3069887460       -0.7624742117E-01     1.330112320    
AX        -1.322767080        0.3398011670       -0.6681468405E-01
AX       -0.7887432226       -0.9682072177        0.6313586889    
AX       -0.5145932046        0.9308064101E-01    0.6340664931    
AX        0.2411425028       -0.6615820124        0.3763500652    
AX        0.5182275590        0.3794138797        0.3572989620    
AX        0.4515477499       -0.1699559938       -0.5818646138    
AX       -0.5756986194       -0.4421468368       -0.3186015195    
AX       -0.2861454954        0.6116852647       -0.3077695000    
    38
Energy=    -170.940862382370    
AX        0.6549862863        0.3704253565        -1.548420773    
AX         1.086438675       -0.8129838511         1.088138805    
AX       -0.4030145187E-01    -1.739280014        0.3839033428    
AX         1.204925422       -0.9442706736       -0.8206630460    
AX        -1.612936497       -0.7315358243       -0.7099585000E-01
AX       -0.7449057387E-01     1.179222875        -1.219737911    
AX         1.323721951        0.2899283828         1.070738526    
AX        -1.542856819       -0.1871375657        0.8924945809    
AX       -0.4838196143        0.6336155017         1.625623203    
AX         1.271083253         1.766174550       -0.2699990310    
AX        0.1308624258         1.654201485       -0.1975872229    
AX       -0.8706609842        -1.512596818       -0.3262628842    
AX        0.8756030819         1.343192471        0.6650743077    
AX       -0.6550661565       -0.9852903373        -1.275603106    
AX       -0.9676793467         1.417140909       -0.5745727566E-01
AX        -1.112493828        0.8645554020        -1.011380093    
AX        -1.261897027        0.8867902419        0.8820966474    
AX        0.9968359162        -1.422375593        0.1587512486    
AX        -1.402136706       -0.2099740931        -1.023009955    
AX         1.585432996        0.7171246030        0.8633898112E-01
AX       -0.7183977478       -0.4372028101         1.592049437    
AX        0.6490122639E-01    -1.169901296         1.328821343    
AX        0.3840259492       -0.7042427186        -1.533723559    
AX         1.495662774        0.1182034942       -0.8622155174    
AX       -0.2018657319         1.131219854        0.6936109171    
AX        0.1680069645        -1.226231546       -0.5704188143    
AX        0.7518569289        0.8668461891       -0.5836133961    
AX         1.286593894       -0.3492785277        0.1182454187    
AX       -0.3662762085        0.8793548185E-01    -1.268937007    
AX        0.3069716174       -0.7629334948E-01     1.330113552    
AX        -1.322760827        0.3398123611       -0.6682820254E-01
AX       -0.7887395629       -0.9682062498        0.6313976169    
AX       -0.5146001699        0.9306955037E-01    0.6340566623    
AX        0.2411408058       -0.6616039916        0.3763356627    
AX        0.5182227876        0.3793921591        0.3573216382    
AX        0.4515417631       -0.1699495138       -0.5818746031    
AX       -0.5757024400       -0.4421641188       -0.3186014551    
AX       -0.2861330262        0.6116680231       -0.3077821889    
