    38
Energy=    -170.766608021573    
AX        0.8037092648        0.6020022624        -1.467217499    
AX         1.161295156        0.5733865540         1.218441101    
AX         1.243609138        -1.089226497       -0.6434420910    
AX        0.8466284914       -0.5024845574        -1.491814097    
AX        -1.156532120       -0.2518987469E-01    0.6071283098    
AX       -0.1694544111         1.105764499        -1.346019044    
AX         1.687952197       -0.5289776939        0.2161475991    
AX       -0.7390669191        0.5370990206         1.464625943    
AX        0.1967964649         1.110957298         1.342045227    
AX        0.7137802498         1.120636259        0.3642204453    
AX        0.2663812404         1.667411820       -0.4955019248    
AX        -1.132315400        -1.129931383        0.6059550141    
AX         1.678241565        0.5808445631        0.2426104181    
AX        -1.040705367       -0.6035712422        -1.222063907    
AX       -0.6726643371         1.088092885       -0.3663321514    
AX        -1.098265075        0.5076367666        -1.219824447    
AX        -1.185529486         1.081420742        0.6137583405    
AX        0.7442494708        -1.092636585        0.3430681896    
AX        -1.566592171       -0.5885725026       -0.2548198431    
AX         1.234937358         1.143520884       -0.6076962940    
AX       -0.7171767803       -0.5721295252         1.464828528    
AX       -0.1835605465        -1.673850674        0.4813877139    
AX       -0.5298592178E-01    -1.122305656        -1.328917405    
AX         1.253033207        0.3739556154E-01   -0.6217155591    
AX       -0.2487805789         1.654242057        0.4873868486    
AX        0.3228159135       -0.5225009538       -0.4916828325    
AX        0.2907121212        0.5658283519       -0.4882651064    
AX         1.182314145       -0.5343924850         1.199601850    
AX       -0.1236210923       -0.7143915145E-03    -1.344350748    
AX        0.2222894750        0.3257141651E-02     1.337126464    
AX        -1.610311902        0.5149467505       -0.2421434285    
AX        -1.491917495        -1.700856365       -0.2868805159    
AX       -0.1969785748       -0.5473336132        0.4861562024    
AX        0.2412623357        -1.106824830         1.333243243    
AX       -0.2208636654        0.5469391973        0.4830269957    
AX        0.7326499897        0.1969211504E-01    0.3575203493    
AX       -0.5799331923        -1.109004641       -0.3646644597    
AX       -0.6354027490       -0.1057125634E-01   -0.3649274286    
    38
Energy=    -170.766608021540    
AX        0.8037093289        0.6020022568        -1.467217333    
AX         1.161295085        0.5733866556         1.218440987    
AX         1.243609093        -1.089226659       -0.6434419136    
AX        0.8466286028       -0.5024846241        -1.491814010    
AX        -1.156532088       -0.2518988390E-01    0.6071284438    
AX       -0.1694543913         1.105764575        -1.346019042    
AX         1.687952219       -0.5289779471        0.2161476531    
AX       -0.7390667880        0.5370992357         1.464626058    
AX        0.1967965340         1.110957572         1.342045270    
AX        0.7137802019         1.120636275        0.3642204395    
AX        0.2663811517         1.667411803       -0.4955019210    
AX        -1.132315306        -1.129931629        0.6059550678    
AX         1.678241611        0.5808443248        0.2426104863    
AX        -1.040705385       -0.6035710526        -1.222063773    
AX       -0.6726644594         1.088092957       -0.3663321009    
AX        -1.098265014        0.5076369528        -1.219824399    
AX        -1.185529583         1.081420716        0.6137584183    
AX        0.7442493283        -1.092636567        0.3430681361    
AX        -1.566592045       -0.5885726898       -0.2548195996    
AX         1.234937357         1.143520824       -0.6076960927    
AX       -0.7171767400       -0.5721293856         1.464828494    
AX       -0.1835604682        -1.673850771        0.4813876918    
AX       -0.5298598832E-01    -1.122305655        -1.328917644    
AX         1.253033328        0.3739543383E-01   -0.6217155176    
AX       -0.2487806697         1.654242173        0.4873868757    
AX        0.3228158932       -0.5225010466       -0.4916830083    
AX        0.2907120716        0.5658283212       -0.4882651150    
AX         1.182314164       -0.5343923453         1.199601777    
AX       -0.1236210638       -0.7143503503E-03    -1.344350860    
AX        0.2222894623        0.3257311133E-02     1.337126249    
AX        -1.610311914        0.5149465111       -0.2421433568    
AX        -1.491917568        -1.700856469       -0.2868808068    
AX       -0.1969786522       -0.5473335779        0.4861560647    
AX        0.2412623303        -1.106824626         1.333243142    
AX       -0.2208637097        0.5469393078        0.4830270168    
AX        0.7326499505        0.1969210037E-01    0.3575201974    
AX       -0.5799331457        -1.109004771       -0.3646645473    
AX       -0.6354027323       -0.1057125465E-01   -0.3649274256    
    38
Energy=    -170.766605254558    
AX        0.8037590099        0.6020459442        -1.467210278    
AX         1.161303141        0.5732977869         1.218418436    
AX         1.243599167        -1.089223615       -0.6434953301    
AX        0.8466500004       -0.5024422972        -1.491867383    
AX        -1.156531924       -0.2516855610E-01    0.6071194818    
AX       -0.1693758636         1.105847680        -1.346014043    
AX         1.687883172       -0.5290164235        0.2161557460    
AX       -0.7390801742        0.5372391828         1.464581527    
AX        0.1968525833         1.110962963         1.342069337    
AX        0.7137791295         1.120624405        0.3642486047    
AX        0.2663767574         1.667442255       -0.4954315759    
AX        -1.132221797        -1.129878441        0.6061203293    
AX         1.678234792        0.5808122840        0.2425908026    
AX        -1.040701438       -0.6034533651        -1.222076683    
AX       -0.6726586329         1.088079290       -0.3663536898    
AX        -1.098194578        0.5077384008        -1.219881540    
AX        -1.185606560         1.081408124        0.6136444450    
AX        0.7441985907        -1.092680038        0.3430027187    
AX        -1.566530321       -0.5887284558       -0.2547681109    
AX         1.234936740         1.143549898       -0.6076634718    
AX       -0.7171877483       -0.5719726562         1.464900105    
AX       -0.1836068481        -1.673925362        0.4812889361    
AX       -0.5301391596E-01    -1.122207043        -1.329010320    
AX         1.253035028        0.3741373599E-01   -0.6217198336    
AX       -0.2488217036         1.654218866        0.4874377578    
AX        0.3228042833       -0.5224882980       -0.4917200601    
AX        0.2907263965        0.5658444760       -0.4882700459    
AX         1.182207451       -0.5344998436         1.199593186    
AX       -0.1235719647       -0.6328476134E-03    -1.344373420    
AX        0.2222553489        0.3268583788E-02     1.337113135    
AX        -1.610304131        0.5148271178       -0.2422525563    
AX        -1.491744555        -1.701118680       -0.2863454493    
AX       -0.1970057150       -0.5473317529        0.4861217647    
AX        0.2411242708        -1.106869315         1.333174970    
AX       -0.2208781012        0.5469421049        0.4830257299    
AX        0.7326335618        0.1966073904E-01    0.3574970331    
AX       -0.5799273660        -1.109027401       -0.3647096683    
AX       -0.6353960859       -0.1055944654E-01   -0.3649405873    
    38
Energy=    -170.177757241499    
AX        0.8116872057        0.6206157849        -1.460261857    
AX         1.156940059        0.5904617288         1.229756678    
AX        0.9945161989        -1.291833155       -0.7108372121    
AX        0.8719367907       -0.4882063735        -1.483391945    
AX        -1.154689623       -0.2917690632E-01    0.6047404890    
AX       -0.1678266719         1.113078663        -1.343602556    
AX         1.676173527       -0.5380239946        0.1865018912    
AX       -0.7445770264        0.5355227806         1.463824592    
AX        0.1859879141         1.119360283         1.347073220    
AX        0.7100248942         1.135323179        0.3731180009    
AX        0.2598616113         1.680786912       -0.4898745589    
AX        -1.119719115        -1.132773937        0.6042198357    
AX         1.677975578        0.5859702012        0.2551178132    
AX        -1.007591277       -0.6137541756        -1.222805819    
AX       -0.6772762932         1.091931300       -0.3672512361    
AX        -1.088317423        0.5000579509        -1.223279823    
AX        -1.193553145         1.076837791        0.6109353645    
AX        0.7459146300        -1.085889646        0.3369608773    
AX        -1.548290354       -0.5984963293       -0.2627548754    
AX         1.235316037         1.162200667       -0.5939666210    
AX       -0.7107160743       -0.5735520529         1.465807443    
AX       -0.1691273107        -1.673111118        0.4877642574    
AX       -0.5559233928E-02    -1.127194845        -1.310853926    
AX         1.256299134        0.5643197432E-01   -0.6186127982    
AX       -0.2605093844         1.658906034        0.4900823175    
AX        0.3293947689       -0.4905861364       -0.4820934820    
AX        0.2923098378        0.5853677568       -0.4830277615    
AX         1.192370387       -0.5203848865         1.187528738    
AX       -0.1058725613        0.4895523225E-02    -1.343322129    
AX        0.2243153190        0.1190857963E-01     1.343137695    
AX        -1.608130354        0.5058541342       -0.2485504253    
AX        -1.457191097        -1.710222601       -0.2920520103    
AX       -0.1899484752       -0.5403401334        0.4915376256    
AX        0.2572363112        -1.097057389         1.331904975    
AX       -0.2229811332        0.5534083412        0.4854552301    
AX        0.7343298469        0.3579740986E-01    0.3653349372    
AX       -0.5512873657        -1.108066310       -0.3606832578    
AX       -0.6294261314       -0.6047004277E-02   -0.3635796883    
    38
Energy=    -170.098193405363    
AX        0.8198875564        0.5967380689        -1.458862578    
AX         1.155593173        0.5999883982         1.232918367    
AX        0.8571556709        -1.400067725       -0.7209073672    
AX        0.8801019856       -0.5207884490        -1.445292051    
AX        -1.149894686       -0.3659127861E-01    0.6039305041    
AX       -0.1523989456         1.114332468        -1.343277977    
AX         1.706605352       -0.4993884191        0.2228994052    
AX       -0.7462178420        0.5314675065         1.463229136    
AX        0.1814479582         1.119912541         1.348367512    
AX        0.7062654395         1.144113935        0.3745152102    
AX        0.2564095139         1.687651619       -0.4854007767    
AX        -1.095657447        -1.145602249        0.5990407163    
AX         1.678689020        0.6157378304        0.2591840338    
AX        -1.027267000       -0.5947825299        -1.224425639    
AX       -0.6759408792         1.094608446       -0.3677744020    
AX        -1.081918163        0.5149627885        -1.226699306    
AX        -1.195827914         1.069956754        0.6089900743    
AX        0.7748790125        -1.063912499        0.3356500968    
AX        -1.547203330       -0.6052368474       -0.2552832487    
AX         1.228920836         1.167381646       -0.6000620499    
AX       -0.7044353937       -0.5779975149         1.462342142    
AX       -0.1333110975        -1.669284097        0.4530078226    
AX       -0.4292048624E-01    -1.108667406        -1.336783493    
AX         1.265059370        0.6162349763E-01   -0.6027172615    
AX       -0.2671941161         1.659860127        0.4932596020    
AX        0.3339685157       -0.4913013174       -0.4829472213    
AX        0.2941186605        0.5866189458       -0.4816468842    
AX         1.194204370       -0.5089964472         1.205754634    
AX       -0.1049844314        0.5623519738E-02    -1.344798780    
AX        0.2244592866        0.1232391312E-01     1.342480930    
AX        -1.606013608        0.5002806486       -0.2517915731    
AX        -1.446048570        -1.715922725       -0.2978748633    
AX       -0.1809648749       -0.5394764932        0.4848572392    
AX        0.2614967439        -1.100566266         1.321600973    
AX       -0.2226336298        0.5538238282        0.4851449653    
AX        0.7400945747        0.4568599117E-01    0.3694456284    
AX       -0.5504763289        -1.100770911       -0.3733663909    
AX       -0.6280482946       -0.3339297522E-02   -0.3667071290    
    38
Energy=    -170.802626339297    
AX        0.8330039036        0.6101520572        -1.459035454    
AX         1.155206862        0.6127226829         1.230901544    
AX        0.4560043686        -1.586295748       -0.5392376890    
AX        0.8889328193       -0.5077290479        -1.455091278    
AX        -1.134759013       -0.5463494478E-01    0.5922694453    
AX       -0.1396494920         1.130773733        -1.339015384    
AX         1.743526562       -0.4421032631        0.2548903615    
AX       -0.7468566040        0.5121139305         1.459048555    
AX        0.1725164882         1.115857204         1.351789234    
AX        0.6974431294         1.153627536        0.3775299147    
AX        0.2481117831         1.696389641       -0.4737863667    
AX        -1.072176043        -1.160151787        0.5807102634    
AX         1.678481524        0.6602705629        0.2584752556    
AX        -1.029995064       -0.5732177413        -1.234639699    
AX       -0.6711596367         1.089095689       -0.3661182066    
AX        -1.070673293        0.5324757292        -1.232744128    
AX        -1.199669595         1.051498354        0.6073030774    
AX        0.8226085780        -1.042648078        0.3408005877    
AX        -1.537586467       -0.6217586788       -0.2633084208    
AX         1.221911232         1.188332831       -0.5998555678    
AX       -0.6856949414       -0.5976626269         1.445529141    
AX       -0.9914550217E-01    -1.657918368        0.4326860885    
AX       -0.5376587332E-01    -1.076727265        -1.378801058    
AX         1.284435655        0.7829581031E-01   -0.6024062062    
AX       -0.2815876763         1.657859797        0.5015863430    
AX        0.3629635252       -0.4999637681       -0.4974563599    
AX        0.3042233735        0.5886001267       -0.4836480741    
AX         1.207984425       -0.4909446410         1.222004013    
AX       -0.9346310663E-01    0.2286808989E-01    -1.346291203    
AX        0.2307936676        0.9833580790E-02     1.334271888    
AX        -1.594862511        0.4827904776       -0.2612663589    
AX        -1.408927855        -1.737323402       -0.3154694124    
AX       -0.1592264952       -0.5443424480        0.4692891274    
AX        0.2872287725        -1.103444570         1.309497272    
AX       -0.2189308126        0.5475977823        0.4830786925    
AX        0.7529583435        0.5882731347E-01    0.3677421484    
AX       -0.5373218461        -1.095165756       -0.3963278914    
AX       -0.6128831831       -0.7950796407E-02   -0.3749041938    
    38
Energy=    -170.822117693720    
AX        0.8314097562        0.6111219648        -1.458483391    
AX         1.154796650        0.6158829737         1.234214948    
AX        0.4532902660        -1.592287065       -0.5435279426    
AX        0.8939952297       -0.5061056618        -1.450392448    
AX        -1.135300268       -0.5368955827E-01    0.5933538356    
AX       -0.1413025011         1.127719899        -1.339229723    
AX         1.739811207       -0.4498200066        0.2454107910    
AX       -0.7467789489        0.5143640682         1.459474045    
AX        0.1723464664         1.117204286         1.352299562    
AX        0.6979895250         1.155560935        0.3785050064    
AX        0.2469671497         1.697390293       -0.4747108380    
AX        -1.067749522        -1.161144690        0.5810403369    
AX         1.679668897        0.6565203367        0.2618827518    
AX        -1.026981257       -0.5772872029        -1.236474160    
AX       -0.6725977537         1.090358419       -0.3657969003    
AX        -1.070279520        0.5275011547        -1.232191180    
AX        -1.200405404         1.051630866        0.6068231771    
AX        0.8190329326        -1.043853697        0.3394025932    
AX        -1.534058338       -0.6200632864       -0.2637687993    
AX         1.222419352         1.190555156       -0.5988324952    
AX       -0.6863591348       -0.5945689992         1.447428973    
AX       -0.9645237001E-01    -1.660811801        0.4307987131    
AX       -0.5014069411E-01    -1.077863141        -1.380660079    
AX         1.282708720        0.8324639300E-01   -0.5999702583    
AX       -0.2816764001         1.657155866        0.5013236014    
AX        0.3629928738       -0.4992567397       -0.4950114539    
AX        0.3025665409        0.5891424576       -0.4811846141    
AX         1.210244866       -0.4895415998         1.216777397    
AX       -0.9308454128E-01    0.2103659573E-01    -1.346142248    
AX        0.2314596739        0.1067165307E-01     1.335742497    
AX        -1.596238305        0.4835464077       -0.2605778400    
AX        -1.415999652        -1.731669834       -0.3152870758    
AX       -0.1579193945       -0.5444792518        0.4691248908    
AX        0.2865082035        -1.101212264         1.310086344    
AX       -0.2188868807        0.5500343302        0.4832900895    
AX        0.7528371319        0.5728624434E-01    0.3672340431    
AX       -0.5367398284        -1.096910558       -0.3968364611    
AX       -0.6120947254       -0.7364940966E-02   -0.3751356880    
    38
Energy=    -170.822172560334    
AX        0.8310671435        0.6111581095        -1.458336722    
AX         1.154497690        0.6162872642         1.234355113    
AX        0.4535256018        -1.592366925       -0.5431944103    
AX        0.8938873923       -0.5059091315        -1.450457875    
AX        -1.135203771       -0.5374191371E-01    0.5934165585    
AX       -0.1419892797         1.127215490        -1.339327108    
AX         1.740018589       -0.4497333425        0.2455137991    
AX       -0.7467979132        0.5137532811         1.459795266    
AX        0.1718918931         1.117331830         1.352127051    
AX        0.6980255145         1.155612116        0.3783595978    
AX        0.2471601765         1.697107905       -0.4753450336    
AX        -1.068035117        -1.161214447        0.5803090622    
AX         1.679715777        0.6564976389        0.2621244034    
AX        -1.026903950       -0.5778978121        -1.236592013    
AX       -0.6725878162         1.090281071       -0.3656812265    
AX        -1.070888362        0.5269333800        -1.231746557    
AX        -1.199805484         1.051831483        0.6074316549    
AX        0.8192926163        -1.043687176        0.3395967232    
AX        -1.534189186       -0.6193646029       -0.2640893398    
AX         1.222673787         1.190320128       -0.5988096215    
AX       -0.6862874396       -0.5952364209         1.447116530    
AX       -0.9631803645E-01    -1.660595823        0.4311074209    
AX       -0.4984156585E-01    -1.078161485        -1.380566118    
AX         1.282732051        0.8317132273E-01   -0.5998966129    
AX       -0.2812725013         1.657457816        0.5008367609    
AX        0.3631094831       -0.4993362975       -0.4949251259    
AX        0.3025663926        0.5890058146       -0.4812083710    
AX         1.210492941       -0.4890851431         1.216924164    
AX       -0.9332990367E-01    0.2077064779E-01    -1.346041875    
AX        0.2314336869        0.1068751418E-01     1.335883701    
AX        -1.596269035        0.4841139869       -0.2598325691    
AX        -1.416849774        -1.730539190       -0.3171069434    
AX       -0.1578498204       -0.5445013543        0.4691496087    
AX        0.2869981171        -1.101073047         1.310250107    
AX       -0.2188326390        0.5499945395        0.4833799712    
AX        0.7528946518        0.5733701823E-01    0.3673420657    
AX       -0.5365836701        -1.096950140       -0.3968437959    
AX       -0.6121482396       -0.7474105709E-02   -0.3750182414    
    38
Energy=    -170.822174218598    
AX        0.8311018729        0.6110555045        -1.458379127    
AX         1.154522469        0.6163135021         1.234338885    
AX        0.4535158833        -1.592373024       -0.5431364911    
AX        0.8939134383       -0.5060223202        -1.450427877    
AX        -1.135197055       -0.5374533985E-01    0.5934066461    
AX       -0.1418980767         1.127189225        -1.339294877    
AX         1.740026946       -0.4496790803        0.2454724364    
AX       -0.7467904171        0.5137176101         1.459805723    
AX        0.1719009982         1.117315892         1.352165481    
AX        0.6979819833         1.155619433        0.3783651361    
AX        0.2470751518         1.697143094       -0.4752708718    
AX        -1.068068327        -1.161214655        0.5802467560    
AX         1.679668790        0.6565690089        0.2620621060    
AX        -1.026903813       -0.5779006602        -1.236593926    
AX       -0.6725692366         1.090251352       -0.3656546139    
AX        -1.070832686        0.5269441383        -1.231755833    
AX        -1.199817248         1.051796636        0.6074508185    
AX        0.8193411958        -1.043692927        0.3395995169    
AX        -1.534222319       -0.6192904981       -0.2641194456    
AX         1.222561539         1.190370959       -0.5988686968    
AX       -0.6862765593       -0.5952763603         1.447079866    
AX       -0.9630818972E-01    -1.660564062        0.4311655366    
AX       -0.4985417067E-01    -1.078218139        -1.380535620    
AX         1.282719396        0.8319271551E-01   -0.5999165569    
AX       -0.2813201885         1.657438655        0.5009128868    
AX        0.3631279123       -0.4993636086       -0.4949103549    
AX        0.3025706319        0.5889815606       -0.4811986642    
AX         1.210548123       -0.4890528244         1.216903725    
AX       -0.9330634748E-01    0.2072055095E-01    -1.346037826    
AX        0.2314594174        0.1068600781E-01     1.335915360    
AX        -1.596257135        0.4841464497       -0.2598521134    
AX        -1.416995550        -1.730381890       -0.3172811018    
AX       -0.1578286365       -0.5445060013        0.4691617136    
AX        0.2870659668        -1.101038179         1.310268718    
AX       -0.2188341927        0.5499730923        0.4834080809    
AX        0.7529009036        0.5733492978E-01    0.3673515971    
AX       -0.5365920310        -1.096951573       -0.3968292743    
AX       -0.6121304406       -0.7489176785E-02   -0.3750177213    
