    38
Energy=    -170.822174218599    
AX        0.8305451016        0.6059120603        -1.460840270    
AX         1.155102299        0.6204789341         1.231706705    
AX        0.4531338732        -1.594291674       -0.5378007500    
AX        0.8932528221       -0.5111375665        -1.449040606    
AX        -1.134951719       -0.5157600729E-01    0.5940680668    
AX       -0.1423549648         1.122550561        -1.343136883    
AX         1.740087177       -0.4489943994        0.2462972407    
AX       -0.7461250976        0.5188510331         1.458329682    
AX        0.1725787477         1.121982784         1.348208993    
AX        0.6982524509         1.156856930        0.3740599089    
AX        0.2470374676         1.695460211       -0.4812592150    
AX        -1.067934856        -1.159090846        0.5847215349    
AX         1.679842188        0.6573104569        0.2590748235    
AX        -1.027480921       -0.5820865688        -1.234148810    
AX       -0.6726187928         1.089041945       -0.3691506814    
AX        -1.071301705        0.5227726380        -1.233124696    
AX        -1.199459877         1.054014330        0.6043044797    
AX        0.8193842357        -1.042588508        0.3428723980    
AX        -1.534393039       -0.6200534452       -0.2613228115    
AX         1.222422968         1.188167344       -0.6035096770    
AX       -0.6857230663       -0.5901863164         1.449425271    
AX       -0.9628564527E-01    -1.659049084        0.4369636637    
AX       -0.5054011886E-01    -1.082995557        -1.376766042    
AX         1.282474133        0.8098625839E-01   -0.6007422672    
AX       -0.2809497400         1.659193660        0.4952790973    
AX        0.3628711416       -0.5011127321       -0.4933282308    
AX        0.3024241017        0.5872793570       -0.4833663615    
AX         1.211014484       -0.4849466813         1.218082389    
AX       -0.9387227577E-01    0.1606041611E-01    -1.346062143    
AX        0.2320240719        0.1529737099E-01     1.335772567    
AX        -1.596320134        0.4833977045       -0.2608569427    
AX        -1.417295363        -1.731333982       -0.3106794012    
AX       -0.1576829258       -0.5428599472        0.4711141806    
AX        0.2875130863        -1.096514528         1.313958982    
AX       -0.2185774205        0.5516679341        0.4815896501    
AX        0.7530613172        0.5853547082E-01    0.3668330486    
AX       -0.5368646894        -1.098269208       -0.3927955252    
AX       -0.6122893158       -0.8730349642E-02   -0.3747313677    
    38
Energy=    -170.822174218583    
AX        0.8305451080        0.6059120850        -1.460840249    
AX         1.155102370        0.6204788812         1.231706648    
AX        0.4531338343        -1.594291742       -0.5378007269    
AX        0.8932528690       -0.5111375391        -1.449040649    
AX        -1.134951826       -0.5157596504E-01    0.5940680118    
AX       -0.1423550190         1.122550519        -1.343136907    
AX         1.740087122       -0.4489943548        0.2462972782    
AX       -0.7461250831        0.5188509262         1.458329736    
AX        0.1725787590         1.121982700         1.348208989    
AX        0.6982525109         1.156856889        0.3740599990    
AX        0.2470374740         1.695460221       -0.4812592797    
AX        -1.067934884        -1.159090792        0.5847215280    
AX         1.679842182        0.6573104802        0.2590748091    
AX        -1.027480821       -0.5820866903        -1.234148850    
AX       -0.6726188627         1.089041988       -0.3691507396    
AX        -1.071301694        0.5227725540        -1.233124689    
AX        -1.199459834         1.054014389        0.6043045617    
AX        0.8193841593        -1.042588449        0.3428723510    
AX        -1.534392974       -0.6200533696       -0.2613228465    
AX         1.222422988         1.188167352       -0.6035096671    
AX       -0.6857230518       -0.5901864140         1.449425330    
AX       -0.9628567753E-01    -1.659049046        0.4369636978    
AX       -0.5054004543E-01    -1.082995636        -1.376766073    
AX         1.282474069        0.8098626133E-01   -0.6007422954    
AX       -0.2809496746         1.659193702        0.4952791423    
AX        0.3628711157       -0.5011127172       -0.4933282414    
AX        0.3024240441        0.5872793455       -0.4833664027    
AX         1.211014462       -0.4849467346         1.218082373    
AX       -0.9387221295E-01    0.1606039777E-01    -1.346062168    
AX        0.2320240240        0.1529731207E-01     1.335772546    
AX        -1.596320094        0.4833977863       -0.2608569000    
AX        -1.417295210        -1.731334023       -0.3106792712    
AX       -0.1576829534       -0.5428599093        0.4711141851    
AX        0.2875130626        -1.096514511         1.313958945    
AX       -0.2185774684        0.5516679935        0.4815896602    
AX        0.7530612862        0.5853555125E-01    0.3668330525    
AX       -0.5368646634        -1.098269157       -0.3927955570    
AX       -0.6122893916       -0.8730283431E-02   -0.3747313301    
    38
Energy=    -170.822174218556    
AX        0.8305449002        0.6059119997        -1.460840265    
AX         1.155102282        0.6204787492         1.231706658    
AX        0.4531338635        -1.594291687       -0.5378008364    
AX        0.8932531003       -0.5111375361        -1.449040417    
AX        -1.134951571       -0.5157580269E-01    0.5940680432    
AX       -0.1423553580         1.122550249        -1.343136803    
AX         1.740087186       -0.4489941861        0.2462975801    
AX       -0.7461249398        0.5188512991         1.458329792    
AX        0.1725789553         1.121982870         1.348208938    
AX        0.6982525148         1.156856959        0.3740597714    
AX        0.2470373135         1.695460132       -0.4812594037    
AX        -1.067934944        -1.159090573        0.5847213718    
AX         1.679842225        0.6573107716        0.2590748139    
AX        -1.027480885       -0.5820867491        -1.234149117    
AX       -0.6726188299         1.089041808       -0.3691504664    
AX        -1.071302096        0.5227723973        -1.233124332    
AX        -1.199459689         1.054014586        0.6043047451    
AX        0.8193842479        -1.042588691        0.3428724295    
AX        -1.534392990       -0.6200533970       -0.2613230652    
AX         1.222422905         1.188167518       -0.6035098673    
AX       -0.6857232328       -0.5901860707         1.449425172    
AX       -0.9628595203E-01    -1.659049135        0.4369633500    
AX       -0.5053985547E-01    -1.082995567        -1.376766239    
AX         1.282474348        0.8098645192E-01   -0.6007421656    
AX       -0.2809495541         1.659193759        0.4952790511    
AX        0.3628713060       -0.5011127432       -0.4933282187    
AX        0.3024241579        0.5872792798       -0.4833663361    
AX         1.211014201       -0.4849469816         1.218082573    
AX       -0.9387236357E-01    0.1606028060E-01    -1.346062121    
AX        0.2320240265        0.1529730522E-01     1.335772591    
AX        -1.596320246        0.4833977864       -0.2608564558    
AX        -1.417295049        -1.731334169       -0.3106792759    
AX       -0.1576828623       -0.5428599762        0.4711140620    
AX        0.2875126674        -1.096514769         1.313958845    
AX       -0.2185772758        0.5516679294        0.4815896960    
AX        0.7530614056        0.5853542835E-01    0.3668330786    
AX       -0.5368646302        -1.098269126       -0.3927957927    
AX       -0.6122892810       -0.8730400701E-02   -0.3747313831    
    38
Energy=    -169.865054191752    
AX        0.8600766621        0.4801772341        -1.422527999    
AX         1.199705323        0.6047623053         1.202168989    
AX        0.5046085767        -1.530638407       -0.6290313652    
AX        0.8752637375       -0.6589125244        -1.392630497    
AX        -1.138332441       -0.5599855329E-01    0.5995193056    
AX       -0.5145462056E-01     1.111759503        -1.334498334    
AX         1.775520315       -0.3575923019        0.3756646078    
AX       -0.7402697162        0.5345649898         1.457700485    
AX        0.2129602965         1.105834440         1.359075463    
AX        0.6850870640         1.176150597        0.3699008279    
AX        0.2049046847         1.736251022       -0.4494390727    
AX        -1.025360422        -1.178264969        0.5849528367    
AX         1.658397959        0.7014429186        0.1955444506    
AX        -1.085616916       -0.5313295145        -1.223293003    
AX       -0.6694892404         1.098722332       -0.3591470045    
AX        -1.041703909        0.5797921670        -1.242838952    
AX        -1.223646895         1.040816379        0.5979156266    
AX        0.8675348733        -1.004427311        0.3068353338    
AX        -1.549292628       -0.6295113349       -0.2334448658    
AX         1.159319523         1.207348469       -0.6557513514    
AX       -0.6849382674       -0.5825020454         1.451321156    
AX       -0.2965543149E-01    -1.638164912        0.3450200027    
AX       -0.1396889114        -1.091990289        -1.418224497    
AX         1.305192271       -0.6350988459E-02   -0.5497589913    
AX       -0.3076533951         1.652742669        0.5425290495    
AX        0.3440600908       -0.4821513378       -0.4916157613    
AX        0.3127802886        0.5822758666       -0.4771842820    
AX         1.174248296       -0.5113633654         1.279733212    
AX       -0.1106287031        0.3431074569E-03    -1.349253104    
AX        0.2285400737        0.1358617939E-01     1.336535771    
AX        -1.603815017        0.4797247915       -0.2808490523    
AX        -1.419314758        -1.740280511       -0.2988296193    
AX       -0.1564122948       -0.5338634312        0.4644917709    
AX        0.2655603381        -1.122751681         1.268755063    
AX       -0.2257604441        0.5557883205        0.4887052017    
AX        0.7619101210        0.7286807612E-01    0.3715324124    
AX       -0.5607305250        -1.085543305       -0.4178890119    
AX       -0.6319059587        0.6685412682E-02   -0.3716947996    
    38
Energy=    -169.337159301057    
AX        0.9156490748        0.3804891489        -1.308622999    
AX         1.230527642        0.5904628886         1.148925878    
AX        0.5026517393        -1.514928253       -0.6306522890    
AX        0.9020327243       -0.7271866534        -1.392352145    
AX        -1.137014651       -0.5664506734E-01    0.5978142207    
AX       -0.2847493802E-01     1.138510723        -1.319591646    
AX         1.809999175       -0.2729908221        0.4813612940    
AX       -0.7344254975        0.5354181229         1.463178037    
AX        0.2323409996         1.095217254         1.364486514    
AX        0.6778103748         1.195082735        0.3695630079    
AX        0.1620217642         1.774943657       -0.4184364459    
AX        -1.022438050        -1.177329112        0.5801940374    
AX         1.585933528        0.7019440585        0.3969686304E-01
AX        -1.078751496       -0.5108677002        -1.227897470    
AX       -0.6852368275         1.109368250       -0.3433200949    
AX        -1.036021017        0.6009260077        -1.238906822    
AX        -1.235165355         1.036008896        0.6094976583    
AX        0.8790256598       -0.9909545351        0.2958174281    
AX        -1.544246772       -0.6287763090       -0.2390927313    
AX         1.084390347         1.298373562       -0.7321864112    
AX       -0.6848056879       -0.5809889883         1.447166042    
AX       -0.3303320949E-01    -1.641748852        0.3370146161    
AX       -0.1369353881        -1.065241408        -1.424414493    
AX         1.369214458       -0.2339984090       -0.5108095789    
AX       -0.3181941563         1.647489970        0.5728966228    
AX        0.3271092037       -0.4634290763       -0.5121624111    
AX        0.2886314293        0.6074850217       -0.4517309471    
AX         1.163327781       -0.5289248275         1.291286366    
AX       -0.1109054064        0.3044644525E-01    -1.360815578    
AX        0.2329187065        0.7616423099E-02     1.328470034    
AX        -1.607296243        0.4794251017       -0.2801006059    
AX        -1.406681521        -1.739288224       -0.3047620909    
AX       -0.1537433805       -0.5344280812        0.4518069436    
AX        0.2557699309        -1.129541639         1.261472986    
AX       -0.2281738163        0.5578643097        0.4960740971    
AX        0.7449940417        0.6948605074E-01    0.3584876979    
AX       -0.5525955337        -1.075097609       -0.4249818333    
AX       -0.6302096318        0.1580694323E-01   -0.3743737504    
    38
Energy=    -170.992769450874    
AX        0.9876954062        0.1832417105        -1.179310110    
AX         1.159172362        0.5789894449         1.250174512    
AX        0.4230380230        -1.554968968       -0.6153306666    
AX         1.053619675       -0.9147766464        -1.259442172    
AX        -1.131705113       -0.5663664125E-01    0.5955169541    
AX       -0.1546137143         1.229985100        -1.275402953    
AX         1.852670070        0.1024255646        0.5350352724    
AX       -0.7379982094        0.4712294908         1.487702543    
AX        0.1815866110         1.073633974         1.407721371    
AX        0.7032971352         1.163230550        0.4342505029    
AX        0.2444443708         1.750560113       -0.3749341804    
AX        -1.068053273        -1.155123032        0.5412408334    
AX         1.391572283        0.6919840668       -0.2783182955    
AX        -1.025976131       -0.4801383247        -1.259579328    
AX       -0.6775031442         1.136126951       -0.3027908248    
AX        -1.080444016        0.6220023240        -1.196159921    
AX        -1.201656302         1.044639812        0.6647043113    
AX        0.8115296381        -1.045528745        0.2785267325    
AX        -1.532246270       -0.5906271705       -0.2874288886    
AX        0.9374750792         1.281568024        -1.094180688    
AX       -0.6796381940       -0.6333413771         1.426444065    
AX       -0.1140597518        -1.660586760        0.3517228391    
AX       -0.3915928354E-01   -0.9571953612        -1.431249421    
AX         1.448675886       -0.4143639761       -0.3561124184    
AX       -0.2826715456         1.654526310        0.5933440712    
AX        0.3608470738       -0.4463315434       -0.5258768750    
AX        0.2972034309        0.6446630855       -0.4491710293    
AX         1.211401215       -0.5374420642         1.169892223    
AX       -0.9851720437E-01    0.1349932521        -1.346622887    
AX        0.2405165381       -0.3283097673E-01     1.333741859    
AX        -1.599033325        0.5149141581       -0.2279374824    
AX        -1.390172818        -1.716648061       -0.3562883398    
AX       -0.1575096486       -0.5429003817        0.4410541590    
AX        0.2833543976        -1.145113763         1.250308706    
AX       -0.2149832339        0.5518606193        0.5138400017    
AX        0.7517975965        0.6022739775E-01    0.3613966868    
AX       -0.5404123768        -1.045902843       -0.4485973518    
AX       -0.6135432353        0.3965468650E-01   -0.3718838094    
    38
Energy=    -171.020248742179    
AX        0.9865620549        0.1798712245        -1.181111905    
AX         1.160415151        0.5817723009         1.251426677    
AX        0.4280734321        -1.556657186       -0.6020929523    
AX         1.056007133       -0.9200215930        -1.253222967    
AX        -1.131312719       -0.5743932505E-01    0.5963764511    
AX       -0.1603304823         1.221749687        -1.275496787    
AX         1.852465426        0.1106239350        0.5296900096    
AX       -0.7368646195        0.4600240832         1.491444381    
AX        0.1792330435         1.070655887         1.411300236    
AX        0.7025005552         1.162899438        0.4360999864    
AX        0.2430535832         1.746476623       -0.3766104667    
AX        -1.075025031        -1.158673943        0.5245201346    
AX         1.388129243        0.6974428998       -0.2832255253    
AX        -1.023365349       -0.4908958937        -1.261570416    
AX       -0.6778335003         1.134676927       -0.2997961338    
AX        -1.083896478        0.6116892533        -1.191648013    
AX        -1.197140456         1.044401334        0.6745950944    
AX        0.8193931351        -1.040212474        0.2848646351    
AX        -1.535641662       -0.5738640064       -0.2929339433    
AX        0.9318515636         1.279457440        -1.104118945    
AX       -0.6775687387       -0.6452266947         1.417016767    
AX       -0.1072773558        -1.653983247        0.3642064881    
AX       -0.3566489801E-01   -0.9678838721        -1.425087092    
AX         1.450997743       -0.4097875107       -0.3568801468    
AX       -0.2805545295         1.654413219        0.5953174679    
AX        0.3615911962       -0.4475783240       -0.5239476773    
AX        0.2961770732        0.6420610081       -0.4493374279    
AX         1.219559960       -0.5301924299         1.173388111    
AX       -0.9898758231E-01    0.1257857634        -1.344981164    
AX        0.2422389976       -0.3346922279E-01     1.333052052    
AX        -1.599691401        0.5255224072       -0.2194698605    
AX        -1.422968935        -1.681501151       -0.4011423366    
AX       -0.1550091923       -0.5433006447        0.4422336578    
AX        0.2960677713        -1.140346551         1.257367864    
AX       -0.2155911627        0.5503171512        0.5151797781    
AX        0.7531548324        0.6187103992E-01    0.3616587905    
AX       -0.5396596315        -1.048964997       -0.4463479413    
AX       -0.6130881713        0.3828744586E-01   -0.3707168819    
