          52
Energy of minimum      1=    -41.72299240     first found at step     1004 after               631164 function calls
HH31        3.1060796301        2.9321068573       -1.1184119770
CH3         3.4457260179        2.3819631062       -0.2416098214
HH32        3.4499101575        3.0416319171        0.6251958684
HH33        4.4522151196        2.0034156219       -0.4154011718
C           2.5157698166        1.2212378979        0.0178030365
O           1.5440525165        1.0311163529       -0.7115453155
N           2.7913746233        0.4549295639        1.0730362411
H           3.6074633444        0.6844936056        1.6223937057
CA          2.0479790947       -0.7620715897        1.4236743568
HA          2.1187979818       -1.4598670008        0.5880721440
CB          2.7352724070       -1.4033832398        2.6361098819
HB1         2.2325882208       -2.3376750885        2.8906112942
HB2         3.7783322922       -1.6200802741        2.4006266871
HB3         2.6908157433       -0.7303928450        3.4940536128
C           0.5466592873       -0.5164940102        1.6945502077
O          -0.2839959342       -1.3798890201        1.4009211307
N           0.1828092827        0.6740551046        2.1878756406
H           0.9140260267        1.3310445408        2.4217265224
CA         -1.2077724422        1.0790539830        2.4217796835
HA         -1.7017407097        0.3001229166        3.0056095724
CB         -1.1894967872        2.3631211183        3.2609357672
HB1        -0.7037451076        3.1680620795        2.7068229567
HB2        -0.6512592608        2.1898470863        4.1940379407
HB3        -2.2121092395        2.6611737353        3.4967899410
C          -2.0226087300        1.2665564933        1.1203109365
O          -3.2485272003        1.1200354249        1.1362798441
N          -1.3554766058        1.5566994332       -0.0052283747
H          -0.3523407351        1.6740381355        0.0571201259
CA         -1.9631592144        1.6618514921       -1.3364006887
HA         -3.0285179913        1.8746153273       -1.2324084545
CB         -1.3233584366        2.8547371269       -2.0583888334
HB1        -1.7922583659        2.9858641083       -3.0345621200
HB2        -1.4692009697        3.7638590773       -1.4732401429
HB3        -0.2549058921        2.6834602865       -2.1979279770
C          -1.8351375260        0.3587517529       -2.1554432257
O          -2.7463927072        0.0118942204       -2.9130160554
N          -0.7301070531       -0.3801983276       -1.9919172853
H           0.0093569149       -0.0038030749       -1.4100097688
CA         -0.4638362723       -1.6372039900       -2.6994982964
HA         -0.7361261480       -1.5087521751       -3.7487365922
CB          1.0458776255       -1.9015436501       -2.6358383848
HB1         1.5903203765       -1.0546866983       -3.0563491475
HB2         1.3569918784       -2.0533996930       -1.6018302462
HB3         1.2856462523       -2.7953219866       -3.2134117909
C          -1.2712890318       -2.8417729105       -2.1608776856
O          -1.5608056373       -3.7765479050       -2.9159837131
N          -1.6506655341       -2.8276931319       -0.8745891369
H          -1.3339525719       -2.0531317760       -0.3026942414
CH3        -2.4387010458       -3.8714324413       -0.2193448750
HH31       -3.4177543489       -3.9571253044       -0.6951700623
HH32       -2.5785957552       -3.6253963699        0.8350685704
HH33       -1.9242273557       -4.8318758630       -0.2915702839
          52
Energy of minimum      2=    -40.64488431     first found at step      956 after               600340 function calls
HH31        3.9755667410        2.7521142342        1.1809790523
CH3         3.9331846711        2.1038998329        0.3065273817
HH32        3.7174293848        2.6995300764       -0.5797932015
HH33        4.8901548905        1.5984961199        0.1823877094
C           2.8471065590        1.0722758638        0.5005356546
O           1.9004541615        1.0142265361       -0.2826147286
N           2.9645630895        0.2717828712        1.5603896202
H           3.7731133459        0.3923014610        2.1539835388
CA          2.0541686986       -0.8411844228        1.8609752829
HA          2.0526113041       -1.5210699293        1.0072110486
CB          2.6185075510       -1.5988484068        3.0697528045
HB1         2.6389897452       -0.9480816876        3.9455614091
HB2         1.9912726773       -2.4651728541        3.2851048579
HB3         3.6302307275       -1.9448137315        2.8526734520
C           0.5904921041       -0.4066318677        2.1041573948
O          -0.3348029503       -1.1823774841        1.8513165765
N           0.3645052412        0.8427823075        2.5300773902
H           1.1663467867        1.4203119708        2.7409732750
CA         -0.9691184936        1.4300991602        2.7067605471
HA         -1.5806711634        0.7319661935        3.2813633586
CB         -0.8102991410        2.7126267191        3.5337892170
HB1        -1.7921361520        3.1434808352        3.7350666859
HB2        -0.2084403704        3.4403696098        2.9869293495
HB3        -0.3268350755        2.4844339151        4.4848968498
C          -1.7129149657        1.7025738418        1.3761550991
O          -2.9386120557        1.8523332435        1.3773665626
N          -0.9915330214        1.7462083206        0.2472334874
H           0.0126489309        1.6377683314        0.3257435378
CA         -1.5248761915        1.9555474877       -1.1053530060
HA         -2.5849645655        2.2040091679       -1.0367537787
CB         -0.8064217423        3.1710758061       -1.7082915995
HB1        -0.9301329022        4.0365603083       -1.0558127961
HB2        -1.2320271986        3.4058474282       -2.6846995503
HB3         0.2569530040        2.9568106537       -1.8251867346
C          -1.4313612337        0.7027550663       -2.0123144019
O          -1.8263531202        0.7524278849       -3.1823420636
N          -0.9142044333       -0.4184501340       -1.4949138982
H          -0.6332689763       -0.4050202015       -0.5265882760
CA         -0.7538065174       -1.6785990989       -2.2253065480
HA         -0.3689454021       -1.4498988565       -3.2212738952
CB          0.3052175127       -2.5242895243       -1.5045800464
HB1         0.4960982450       -3.4377820557       -2.0693615740
HB2         1.2366964903       -1.9619684269       -1.4230542494
HB3        -0.0449828319       -2.7917309614       -0.5065621262
C          -2.0849400566       -2.4453801955       -2.4083197065
O          -3.0369648345       -2.2743655466       -1.6362725164
N          -2.1426571740       -3.3169245825       -3.4248799731
H          -1.3203988937       -3.4103261175       -4.0067595636
CH3        -3.3051677063       -4.1438186866       -3.7534144546
HH31       -3.5516074137       -4.7959878626       -2.9128615704
HH32       -4.1668587853       -3.5099175220       -3.9730782058
HH33       -3.0910084939       -4.7619750906       -4.6275226786
          52
Energy of minimum      3=    -40.64488431     first found at step      979 after               613638 function calls
HH31        3.8231314642        2.9247682735        1.2662421366
CH3         3.8202703545        2.2916320634        0.3798030627
HH32        3.5820416994        2.8921351677       -0.4974272613
HH33        4.8023201322        1.8370488983        0.2550314638
C           2.7857201660        1.2036239925        0.5453241711
O           1.8494574854        1.1129550679       -0.2471632694
N           2.9346520046        0.3904104759        1.5914496830
H           3.7313767384        0.5400905803        2.1943240887
CA          2.0787819728       -0.7720348455        1.8636137095
HA          2.1181139339       -1.4351432294        0.9976458369
CB          2.6706841282       -1.5229339385        3.0633964120
HB1         2.6515352170       -0.8883680589        3.9510433127
HB2         3.7001721377       -1.8138415185        2.8490918424
HB3         2.0859345712       -2.4233594391        3.2573551898
C           0.5932757887       -0.4157227766        2.1015963095
O          -0.2899437276       -1.2318704241        1.8264472886
N           0.3015825808        0.8127032509        2.5481366266
H           1.0717729148        1.4255318693        2.7766434849
CA         -1.0611593703        1.3292950729        2.7235719701
HA         -1.6415455636        0.5909194193        3.2799063617
CB         -0.9734083016        2.6025402974        3.5751724045
HB1        -1.9771749340        2.9800025533        3.7754886431
HB2        -0.4044087188        3.3694833607        3.0470273256
HB3        -0.4867409745        2.3811161066        4.5262462328
C          -1.8070074996        1.5889994920        1.3915619495
O          -3.0386384226        1.6773116481        1.3845663889
N          -1.0797126011        1.6896072678        0.2700985799
H          -0.0720190434        1.6300097057        0.3555753899
CA         -1.6120397308        1.8971850232       -1.0831594712
HA         -2.6837588574        2.0910746523       -1.0195093100
CB         -0.9505831770        3.1580872177       -1.6574605594
HB1        -1.3795936881        3.3894410560       -2.6331939212
HB2        -1.1227110984        4.0040205534       -0.9904783747
HB3         0.1230911598        2.9994084166       -1.7687454710
C          -1.4486310694        0.6677221439       -2.0118852331
O          -1.8362452020        0.7193727674       -3.1842922492
N          -0.8801097859       -0.4356913802       -1.5103698353
H          -0.6079533917       -0.4262713237       -0.5394930309
CA         -0.6509480245       -1.6724461920       -2.2621003440
HA         -0.2700742509       -1.4063154986       -3.2502716150
CB          0.4433144241       -2.4774592167       -1.5474573438
HB1         0.6842287714       -3.3696101412       -2.1270341172
HB2         1.3447717905       -1.8709358765       -1.4474142741
HB3         0.0989813132       -2.7805830116       -0.5576312724
C          -1.9404908839       -2.5012093500       -2.4708930672
O          -2.9060316647       -2.3923503156       -1.7043849046
N          -1.9463422523       -3.3554792803       -3.5036100176
H          -1.1158098974       -3.3968551831       -4.0797353696
CH3        -3.0633039745       -4.2331406120       -3.8574837062
HH31       -3.9538849022       -3.6390857691       -4.0732586357
HH32       -2.8114623354       -4.8234557100       -4.7407450323
HH33       -3.2834774051       -4.9123333028       -3.0311621786
          52
Energy of minimum      4=    -40.64488431     first found at step     1002 after               629705 function calls
HH31        3.5166659177        2.7562103728       -1.2162476283
CH3         3.8509145807        2.2503201668       -0.3111272818
HH32        3.9590756683        2.9758042179        0.4942409244
HH33        4.8096428800        1.7673089124       -0.4959941257
C           2.8363942672        1.2054774725        0.0895036736
O           1.8147612181        1.0461346839       -0.5766200311
N           3.1002070867        0.5081108847        1.1949258295
H           3.9617504479        0.7080260098        1.6831972378
CA          2.2750374338       -0.6023482006        1.6887289976
HA          2.2109808099       -1.3561577303        0.9020727620
CB          2.9968776281       -1.2290533241        2.8886721548
HB1         3.9933199531       -1.5599562428        2.5920154701
HB2         2.4334508998       -2.0924458143        3.2456341561
HB3         3.0833212954       -0.5016217165        3.6975777766
C           0.8286816881       -0.1956750530        2.0534133450
O          -0.0847040957       -1.0208731388        1.9718338638
N           0.5968884798        1.0790127218        2.3924659512
H           1.3915370644        1.6990930426        2.4631870293
CA         -0.7338439652        1.6359956675        2.6638171217
HA         -1.2504043361        0.9729355101        3.3602877308
CB         -0.5419077073        2.9923934116        3.3547748516
HB1        -0.0332635776        3.6871126575        2.6842931351
HB2         0.0496634394        2.8668345260        4.2629013450
HB3        -1.5139405092        3.4073445388        3.6251812131
C          -1.6264584400        1.7628981965        1.4048009826
O          -2.8502338928        1.8720394506        1.5281887325
N          -1.0323724373        1.7280670033        0.2037146033
H          -0.0218696035        1.6600098344        0.1801199532
CA         -1.7156085142        1.7970170675       -1.0948239644
HA         -2.7718436941        2.0158924805       -0.9314617385
CB         -1.1177621958        2.9760232480       -1.8756856811
HB1        -1.2075076044        3.8923279492       -1.2905122687
HB2        -1.6548407810        3.1077386315       -2.8158068724
HB3        -0.0648706990        2.7869377422       -2.0901758926
C          -1.6666832393        0.4712503355       -1.8952999259
O          -2.1862206552        0.4022561701       -3.0145726310
N          -1.0502395707       -0.5812216211       -1.3434344494
H          -0.6682306522       -0.4713346882       -0.4167448375
CA         -0.9156903118       -1.8961999542       -1.9758147216
HA         -0.6495096240       -1.7458182080       -3.0241018994
CB          0.2491124009       -2.6383873484       -1.3060659475
HB1         0.0192201499       -2.8260143536       -0.2562323242
HB2         1.1593531564       -2.0408788731       -1.3764218586
HB3         0.4169859625       -3.5923743906       -1.8076727920
C          -2.2251386860       -2.7194345123       -1.9442965645
O          -3.0955607055       -2.5106685814       -1.0896408756
N          -2.3542789466       -3.6805380348       -2.8694551852
H          -1.5957182962       -3.7991346095       -3.5281941124
CH3        -3.5092347673       -4.5712262373       -2.9954356674
HH31       -3.3637881433       -5.2583814190       -3.8313242579
HH32       -4.4154982500       -3.9882101042       -3.1725600604
HH33       -3.6366185268       -5.1526187498       -2.0798252458
          52
Energy of minimum      5=    -40.64488431     first found at step      972 after               609871 function calls
HH31        3.9178051778        2.7331131291        1.3981706198
CH3         3.9048045650        2.1201538125        0.4977508632
HH32        3.7078890333        2.7491435977       -0.3697086654
HH33        4.8691894300        1.6275153221        0.3798325699
C           2.8229832930        1.0732507262        0.6206718024
O           1.8984202751        1.0393421742       -0.1898085781
N           2.9187437656        0.2318581571        1.6506057627
H           3.7098417491        0.3347163924        2.2704574774
CA          2.0103655824       -0.8992383582        1.8815508349
HA          2.0378916156       -1.5443570604        1.0016506819
CB          2.5484206287       -1.7003640815        3.0741825953
HB1         2.5394710613       -1.0850775448        3.9754594315
HB2         3.5686502299       -2.0295509658        2.8712865692
HB3         1.9232262103       -2.5794270637        3.2375789023
C           0.5368804544       -0.4860645253        2.1016681045
O          -0.3743781826       -1.2581579476        1.7928637615
N           0.2884755851        0.7435010996        2.5706852575
H           1.0792081889        1.3182737575        2.8263134838
CA         -1.0545523901        1.3129782865        2.7340311396
HA         -1.6752723996        0.5876914257        3.2633895624
CB         -0.9294539235        2.5625196622        3.6155489703
HB1        -1.9201279951        2.9773880238        3.8068626676
HB2        -0.3194349862        3.3162054045        3.1148153976
HB3        -0.4699213885        2.3001269196        4.5696952281
C          -1.7644301163        1.6328185837        1.3954638887
O          -2.9909800572        1.7729649357        1.3690640858
N          -1.0131697394        1.7272114187        0.2893636520
H          -0.0105661119        1.6234492249        0.3909698359
CA         -1.5115295396        1.9864705105       -1.0679094491
HA         -2.5752287917        2.2238141483       -1.0185301396
CB         -0.7877302093        3.2306791772       -1.6020256828
HB1        -0.9366564679        4.0683442177       -0.9192118617
HB2        -1.1888005383        3.5011048415       -2.5795955057
HB3         0.2802606746        3.0294642545       -1.6981917178
C          -1.3824960307        0.7717853035       -2.0211686126
O          -1.7460999295        0.8652603252       -3.1986682240
N          -0.8696966459       -0.3652369082       -1.5348839077
H          -0.6151987922       -0.3884573733       -0.5594602813
CA         -0.6785218538       -1.5938331654       -2.3102417415
HA         -0.2688725113       -1.3224498231       -3.2853885677
CB          0.3680006951       -2.4595455339       -1.5950469873
HB1         0.5821173060       -3.3481756934       -2.1903391447
HB2         1.2919541130       -1.8937872778       -1.4656938078
HB3        -0.0067169754       -2.7694530898       -0.6184462783
C          -1.9974245250       -2.3628916907       -2.5600583102
O          -2.9714608969       -2.2302871821       -1.8081785038
N          -2.0199472166       -3.1934193991       -3.6117389250
H          -1.1814534611       -3.2570949788       -4.1741356025
CH3        -3.1658286325       -4.0154110675       -4.0046829165
HH31       -3.4291852862       -4.7026167182       -3.1978508536
HH32       -4.0267969381       -3.3798704352       -4.2224351818
HH33       -2.9226671019       -4.5963769479       -4.8965336992
          52
Energy of minimum      6=    -39.79992724     first found at step      849 after               535557 function calls
HH31       -0.4875006045       -5.3392017717       -1.3420447898
CH3         0.1522356382       -4.5292639962       -0.9940281175
HH32        0.3135701186       -3.8202309091       -1.8043483640
HH33        1.1102519511       -4.9338955826       -0.6702869256
C          -0.5088104222       -3.8218119776        0.1676765856
O          -1.5993589060       -4.2097097842        0.5868729743
N           0.1577034998       -2.7914387787        0.6863514611
H           1.0433910247       -2.5480432009        0.2669502935
CA         -0.2858582832       -1.9755363335        1.8228706156
HA         -1.3715664741       -2.0453313139        1.9133293722
CB          0.3413378755       -2.5482296080        3.1031587292
HB1        -0.0072352019       -1.9890618054        3.9724552235
HB2         1.4291550170       -2.4810657455        3.0489758168
HB3         0.0523439937       -3.5934834200        3.2220145125
C           0.0635285589       -0.4832037573        1.6370845106
O           0.9013410587       -0.1299545794        0.8009274020
N          -0.5754119680        0.3938141420        2.4219822881
H          -1.2371034111        0.0248941183        3.0909382155
CA         -0.4275884953        1.8553967155        2.3695636343
HA         -1.2645304687        2.2805427002        2.9263649841
CB          0.8439804316        2.2684938967        3.1330611449
HB1         0.9206947292        3.3564624864        3.1661415459
HB2         1.7317666172        1.8553248175        2.6518290117
HB3         0.7935707618        1.8937953521        4.1564653841
C          -0.5708262289        2.4178266417        0.9338561116
O          -1.6459523321        2.3059112843        0.3378925373
N           0.4964541412        2.9766304015        0.3485618841
H           1.3543461242        3.0311233598        0.8790063330
CA          0.5042880590        3.5167173582       -1.0179210343
HA         -0.3012360688        4.2486062301       -1.1018275106
CB          1.8359592664        4.2504349345       -1.2236161814
HB1         2.6674781673        3.5475473921       -1.1496267739
HB2         1.8503378381        4.7148078812       -2.2107092177
HB3         1.9522045315        5.0296818523       -0.4688404583
C           0.2720377320        2.4529526374       -2.1196836526
O          -0.1440108765        2.7980179691       -3.2298229701
N           0.5010507472        1.1687570991       -1.8147618450
H           0.8610431943        0.9627042918       -0.8893350446
CA          0.2355101934        0.0181540824       -2.6872293163
HA          0.0865232068        0.3759201108       -3.7071301398
CB          1.4896444055       -0.8680203400       -2.6938086000
HB1         1.6671789117       -1.2747623356       -1.6977760959
HB2         1.3582925803       -1.6911359851       -3.3972871698
HB3         2.3560439323       -0.2810253674       -3.0018867930
C          -1.0491442892       -0.7642625733       -2.3100143695
O          -1.3335931494       -1.8108733173       -2.9019195791
N          -1.8274397771       -0.2808101974       -1.3293533634
H          -1.5573385926        0.6003554210       -0.9087857355
CH3        -3.0515452596       -0.9128456861       -0.8374930350
HH31       -3.8014175362       -0.9439684606       -1.6305796520
HH32       -3.4522666341       -0.3449479182        0.0044206701
HH33       -2.8435293277       -1.9327584308       -0.5086345075
          52
Energy of minimum      7=    -39.79992724     first found at step      519 after               333662 function calls
HH31        0.2422110180       -3.8576877532       -1.7342848955
CH3         0.2642540938       -4.5455884169       -0.8906721755
HH32        1.2864459577       -4.8831347388       -0.7247908456
HH33       -0.3732937325       -5.4025574116       -1.1040126926
C          -0.2342582559       -3.8362701554        0.3484327831
O          -1.2122327283       -4.2706775464        0.9569904756
N           0.4446717037       -2.7517829962        0.7197481039
H           1.2300846001       -2.4732528563        0.1495475369
CA          0.1491037989       -1.9227376515        1.8942450479
HA         -0.8993344280       -2.0511441734        2.1701172182
CB          1.0175723158       -2.4129255524        3.0629916142
HB1         2.0743640407       -2.2857372508        2.8225601463
HB2         0.7863891198       -1.8440894456        3.9645613748
HB3         0.8184118297       -3.4680980405        3.2557241051
C           0.3685498052       -0.4204234254        1.6139958813
O           1.0297729640       -0.0498018982        0.6386512729
N          -0.1822945316        0.4459753233        2.4738758994
H          -0.6974732162        0.0638422469        3.2549039508
CA         -0.1367336499        1.9108328948        2.3601234264
HA         -0.8926660454        2.3069887719        3.0404729322
CB          1.2171123384        2.4226618536        2.8850971745
HB1         2.0350540864        2.0440385846        2.2702206991
HB2         1.2304009922        3.5137232025        2.8771225000
HB3         1.3633736659        2.0822290611        3.9112596893
C          -0.5546829079        2.4128952162        0.9560748518
O          -1.7057986858        2.2187224656        0.5550472009
N           0.3617595843        3.0106032440        0.1835487122
H           1.2917091270        3.1327588412        0.5585037839
CA          0.1054832553        3.5014522673       -1.1774878502
HA         -0.7466496994        4.1827274137       -1.1413721619
CB          1.3351090309        4.3022340285       -1.6255606094
HB1         2.2093358015        3.6510268444       -1.6766073729
HB2         1.1539398585        4.7313694293       -2.6120808456
HB3         1.5281673765        5.1131241132       -0.9215642628
C          -0.2424650509        2.3877591321       -2.1963283975
O          -0.8603662609        2.6689217742       -3.2276971468
N           0.1141937264        1.1303545400       -1.9025416118
H           0.6371572595        0.9781391262       -1.0470846021
CA         -0.2224423191       -0.0637486353       -2.6876482208
HA         -0.5632092887        0.2485316610       -3.6759549724
CB          1.0653526731       -0.8765603205       -2.8854415694
HB1         0.8688130618       -1.7302628511       -3.5352253280
HB2         1.8291593066       -0.2523601020       -3.3513781778
HB3         1.4332287984       -1.2369228675       -1.9242733771
C          -1.3738703999       -0.9043529207       -2.0774008247
O          -1.6882883199       -1.9858279369       -2.5855446539
N          -2.0042919659       -0.4316424961       -0.9909941033
H          -1.7225674436        0.4778656782       -0.6450016230
CH3        -3.0861959350       -1.1146831213       -0.2819320678
HH31       -2.7626151043       -2.1087520243        0.0323337751
HH32       -3.9556135672       -1.2166699024       -0.9345997625
HH33       -3.3738376540       -0.5410852231        0.6013299951
          52
Energy of minimum      8=    -39.55711402     first found at step      456 after               295660 function calls
HH31       -2.1370631236       -4.9035701470        1.4165776987
CH3        -2.2727756807       -3.8732206116        1.0900082579
HH32       -1.5724440685       -3.6521420308        0.2855104382
HH33       -3.2928842240       -3.7349891030        0.7335436107
C          -2.0093541367       -2.9428996761        2.2521001696
O          -2.8904496989       -2.1801492434        2.6474229452
N          -0.7916774780       -2.9979619752        2.7922680430
H          -0.1376669302       -3.6676415078        2.4126802076
CA         -0.3551700884       -2.1879297819        3.9380160411
HA         -1.1599496600       -2.1746787337        4.6752192355
CB          0.8524274123       -2.8892542619        4.5748851008
HB1         0.5853839462       -3.9096111097        4.8539635233
HB2         1.1596096845       -2.3504825017        5.4723061034
HB3         1.6864034804       -2.9127785881        3.8715851133
C          -0.0397698662       -0.7124185569        3.5888587041
O           0.1034915906        0.1197604179        4.4908805368
N           0.0644085209       -0.3815946426        2.2963054443
H          -0.0806794337       -1.1163752815        1.6188648319
CA          0.3226691285        0.9623426740        1.7685307307
HA         -0.0172670616        1.7062392143        2.4918112507
CB          1.8391206301        1.1257881981        1.5800346236
HB1         2.2064992288        0.4018476154        0.8505818797
HB2         2.0657509150        2.1333602975        1.2285880558
HB3         2.3500150952        0.9660282516        2.5307318497
C          -0.4405806119        1.2160393923        0.4506384214
O          -0.8662352028        0.2762295419       -0.2291416317
N          -0.5741679989        2.4881184509        0.0568477177
H          -0.1942536227        3.2123071506        0.6514574357
CA         -1.3181246763        2.9125056800       -1.1385337350
HA         -2.3300833491        2.5087786514       -1.0711814568
CB         -1.4161837749        4.4434462247       -1.1100862486
HB1        -1.8947484452        4.7687671596       -0.1851286215
HB2        -0.4204653712        4.8849664553       -1.1773635200
HB3        -2.0155959910        4.7887698427       -1.9537117400
C          -0.7178169705        2.4117576073       -2.4746667096
O          -1.4236746102        2.3502306453       -3.4858267881
N           0.5623666064        2.0179928833       -2.4828931201
H           1.0940004126        2.1338821635       -1.6325700059
CA          1.2456295182        1.4172899113       -3.6342724215
HA          0.9471050913        1.9585641565       -4.5338425347
CB          2.7540851426        1.6252782933       -3.4417616941
HB1         3.0975876990        1.0854806481       -2.5578135336
HB2         3.2911623604        1.2538937535       -4.3155915040
HB3         2.9710747729        2.6880491126       -3.3241817902
C           0.8975490005       -0.0751692501       -3.8691457068
O           1.2634584797       -0.6349301769       -4.9088527200
N           0.1997206844       -0.7299190124       -2.9274657495
H          -0.0750611744       -0.2112542427       -2.1010422146
CH3        -0.2013851641       -2.1349810838       -3.0025201791
HH31       -0.8174085813       -2.3031546732       -3.8883354014
HH32       -0.7780853782       -2.4054980642       -2.1158958625
HH33        0.6815029728       -2.7751101368       -3.0583930812
          52
Energy of minimum      9=    -39.55711402     first found at step      467 after               303208 function calls
HH31       -3.6618300557       -3.4141331578        0.5157826755
CH3        -2.6850911536       -3.6413660750        0.9413913625
HH32       -1.9146075347       -3.4916909289        0.1860707761
HH33       -2.6663360767       -4.6769478832        1.2788883754
C          -2.4173187600       -2.7288913905        2.1165651708
O          -3.2499595995       -1.8859277055        2.4490094004
N          -1.2491594479       -2.8896688901        2.7387420396
H          -0.6347139624       -3.6191945818        2.4062718767
CA         -0.8192816896       -2.1128386618        3.9097114045
HA         -1.6676103867       -2.0202530631        4.5902116811
CB          0.2733854873       -2.9154412581        4.6291955791
HB1        -0.1038777066       -3.9049067743        4.8917894636
HB2         1.1474868584       -3.0206184578        3.9845368303
HB3         0.5668748600       -2.3991238209        5.5442260207
C          -0.3477255157       -0.6751068118        3.5794336107
O          -0.1906562413        0.1483188464        4.4871717403
N          -0.1264479668       -0.3661896174        2.2962352841
H          -0.2916738140       -1.0905339460        1.6121997583
CA          0.2884491246        0.9441757423        1.7841656906
HA         -0.0304851082        1.7220326737        2.4807953891
CB          1.8227609721        0.9676262050        1.6992679370
HB1         2.1711977913        0.2070973773        0.9983071752
HB2         2.1636121914        1.9474103986        1.3617462422
HB3         2.2513418301        0.7702816640        2.6830032646
C          -0.3573992363        1.2548360377        0.4166414976
O          -0.8199098727        0.3517734753       -0.2884026324
N          -0.3474465020        2.5303712865        0.0116567672