    38
Energy=    -172.877736411078    
AX        0.2802885535        0.9225251339         1.688673194    
AX        0.9705431748       -0.8598931512       -0.5677615840    
AX         1.322655380       -0.6993263508         1.336266001    
AX       -0.1738946360         1.655953281       -0.9812611717    
AX         1.438409888        0.1363651884       -0.7315514831    
AX       -0.6161868352        -1.731451071       -0.4265404437    
AX        -1.401390386       -0.1459310450        0.8337008172    
AX        0.3733025550         1.576427097       -0.1107802688E-01
AX       -0.9013262624        0.8674008710        0.6501914703    
AX       -0.6327259935E-01    -1.841248148        0.5593880978    
AX        -1.296555002        0.1076850679        -1.319412369    
AX       -0.3050913323        0.6312382053        -1.406466621    
AX       -0.4232364073        0.1240981740         1.376268186    
AX        -1.084765247       -0.9993327080        -1.142358873    
AX       -0.4313280886       -0.3975904371        -1.821047336    
AX        0.4986318777        -1.853154014       -0.4039518245    
AX        -1.326817057        0.2814092093       -0.2260090090    
AX        0.6325797403        0.8971582962       -0.8575247228    
AX       -0.7422904498         1.736501547       -0.1966051064E-01
AX         1.383635646       -0.2804624200        0.3036223346    
AX       -0.5705062211       -0.9265953361        0.9324808828    
AX        0.9185018941         1.482982542        0.9605803192    
AX        0.3588988195        -1.277664909         1.428345087    
AX        0.5035549745       -0.1305082206        -1.278240713    
AX        -1.119361578       -0.8197595970       -0.5095422428E-01
AX        0.3284521074E-01    -1.129541760        -1.114850402    
AX        0.9178248679        -1.281760864        0.4639518489    
AX         1.180797281        0.8096179179        0.1162738907    
AX        -1.166367151         1.145332040       -0.8989008003    
AX        0.4121168803       -0.3676494199        0.8286005272    
AX        0.4733816402        0.3914816963E-01   -0.1982351912    
AX       -0.1882065700         1.657382056        0.9564750085    
AX        0.2130077929        0.6999393787        0.6286369108    
AX       -0.4462380606       -0.2220701075       -0.7301033409    
AX       -0.3205861616        0.7830576418       -0.3202218198    
AX       -0.4690990833       -0.5386225173E-01    0.3199252721    
AX         1.126094367        0.3970159680         1.155865801    
AX        0.9448584254E-02   -0.9334359748       -0.3311518209E-01
    38
Energy=    -172.877194442556    
AX        0.2813333027        0.9238765153         1.689009671    
AX        0.9705556998       -0.8597279462       -0.5679058739    
AX         1.321708239       -0.6996765158         1.336872373    
AX       -0.1748137946         1.655337393       -0.9816603352    
AX         1.438255824        0.1365966419       -0.7310208046    
AX       -0.6159519902        -1.731494496       -0.4273508095    
AX        -1.401108181       -0.1446338622        0.8344534977    
AX        0.3730212847         1.576710273       -0.1111528620E-01
AX       -0.9007947103        0.8678876925        0.6507680109    
AX       -0.6453407615E-01    -1.841920566        0.5581680212    
AX        -1.296260184        0.1068469660        -1.319166048    
AX       -0.3050939347        0.6306765663        -1.406213204    
AX       -0.4221902349        0.1251699899         1.376449208    
AX        -1.084145545       -0.9998413963        -1.142489562    
AX       -0.4307574903       -0.3981757192        -1.821036898    
AX        0.4987551303        -1.853336271       -0.4041969604    
AX        -1.326928305        0.2818508013       -0.2254986365    
AX        0.6321405625        0.8974273493       -0.8568644853    
AX       -0.7422847236         1.736529030       -0.1978290498E-01
AX         1.383384259       -0.2807168319        0.3040028964    
AX       -0.5708314092       -0.9264603898        0.9324590871    
AX        0.9183665528         1.483487487        0.9600047500    
AX        0.3586297253        -1.279330997         1.426166431    
AX        0.5037609678       -0.1301945946        -1.278062871    
AX        -1.119464546       -0.8196540619       -0.5107593549E-01
AX        0.3346294582E-01    -1.129507536        -1.114836182    
AX        0.9180531143        -1.282139530        0.4632446126    
AX         1.180918550        0.8095759401        0.1165356817    
AX        -1.166988667         1.144637078       -0.8994894870    
AX        0.4120491535       -0.3676547901        0.8287729718    
AX        0.4733201310        0.3916553443E-01   -0.1980351654    
AX       -0.1877421889         1.657779167        0.9566751103    
AX        0.2130959478        0.7002083712        0.6288735077    
AX       -0.4460660938       -0.2223356068       -0.7298294326    
AX       -0.3211336965        0.7830776499       -0.3201203828    
AX       -0.4691998432       -0.5378590554E-01    0.3201195167    
AX         1.125974821        0.3973763716         1.156180138    
AX        0.9503403800E-02   -0.9336298023       -0.3300421933E-01
    38
Energy=    -172.492903961081    
AX        0.2192917084        0.9836216108         1.682130358    
AX        0.9698567516       -0.8661505396       -0.5728652604    
AX         1.330448406       -0.7158082584         1.338891487    
AX       -0.1688734479         1.651115898       -0.9927540612    
AX         1.444279090        0.1274913047       -0.7160321903    
AX       -0.6293629923        -1.721662176       -0.4273886930    
AX        -1.382784789       -0.1549090893        0.8642557527    
AX        0.3752852728         1.578329545       -0.3011732124E-01
AX       -0.8893093375        0.8670462072        0.6821552349    
AX       -0.5039208366E-01    -1.859407417        0.5424737936    
AX        -1.298538860        0.1107583069        -1.297585525    
AX       -0.2887523856        0.6272661027        -1.406269875    
AX       -0.3949107806        0.1031181525         1.388948084    
AX        -1.094601309       -0.9907807870        -1.141130269    
AX       -0.4390173290       -0.3869614330        -1.816888567    
AX        0.4895093515        -1.857083639       -0.4271386303    
AX        -1.323680856        0.3085656088       -0.2039597486    
AX        0.6408180637        0.8936937986       -0.8404709064    
AX       -0.7756617951         1.718378279       -0.4555872963E-01
AX         1.385263862       -0.2835591395        0.3181196822    
AX       -0.5629483462       -0.9466000385        0.9220490002    
AX        0.9044453309         1.494116372        0.9658826899    
AX        0.3711137719        -1.300003639         1.414366249    
AX        0.5090589452       -0.1340806500        -1.272288429    
AX        -1.127208016       -0.8042350338       -0.4864503385E-01
AX        0.2301685211E-01    -1.125829694        -1.120579756    
AX        0.9249086789        -1.293105332        0.4503346765    
AX         1.184923880        0.8043606893        0.1396828148    
AX        -1.159789449         1.143610920       -0.9283161667    
AX        0.4150608835       -0.3811126937        0.8272951801    
AX        0.4762034057        0.3934674626E-01   -0.1924083776    
AX       -0.2066254017         1.700786628        0.9143923720    
AX        0.2117512567        0.7016148843        0.6309645141    
AX       -0.4433634854       -0.2189035724       -0.7207851961    
AX       -0.3154736199        0.7848526941       -0.3214334817    
AX       -0.4650324576       -0.5387144462E-01    0.3287155510    
AX         1.131853807        0.3954174940         1.149005477    
AX        0.9237425132E-02   -0.9394266650       -0.3704669867E-01
    38
Energy=    -170.914421171016    
AX        0.1539282715E-01     1.059313259         1.682533175    
AX        0.9664202208       -0.8580909680       -0.6031307177    
AX         1.359079104       -0.6703211716         1.290895455    
AX       -0.1788035954         1.648065115        -1.009242588    
AX         1.433058086        0.1385271460       -0.7832750227    
AX       -0.6203824526        -1.731965255       -0.4034262817    
AX        -1.356923345       -0.1214032874        0.8658022694    
AX        0.4155957383         1.556931647       -0.6188132805E-01
AX       -0.8281844697        0.8904189112        0.6901794505    
AX       -0.1869446171E-01    -1.832582388        0.5597403735    
AX        -1.323919790        0.9454212848E-01    -1.290071563    
AX       -0.3271555167        0.6200755092        -1.417499317    
AX       -0.3387799153        0.7633676765E-01     1.384666426    
AX        -1.099280138        -1.009557114        -1.120823395    
AX       -0.4718194799       -0.4084020434        -1.821470553    
AX        0.4997315697        -1.853940666       -0.4261440324    
AX        -1.313579674        0.3082354623       -0.1957417482    
AX        0.6300519278        0.8894002679       -0.9088251207    
AX       -0.7456608916         1.734179569       -0.5031137030E-01
AX         1.408649620       -0.2777818624        0.2518874045    
AX       -0.5406073935       -0.9295993235        0.9192204655    
AX        0.9661157185         1.350299890         1.097818553    
AX        0.4035141550        -1.247205668         1.417465094    
AX        0.4827763064       -0.1413178297        -1.310023141    
AX        -1.115379972       -0.8022434673       -0.3715137143E-01
AX        0.1384670685E-01    -1.137321106        -1.128788976    
AX        0.9541780948        -1.290253132        0.4264910038    
AX         1.196651662        0.8054899622        0.1115111063    
AX        -1.170032995         1.138426732       -0.9084348013    
AX        0.4523163457       -0.3812430560        0.7790929483    
AX        0.4799402055        0.4800032005E-01   -0.2303546512    
AX       -0.1100094100         1.739625100        0.8565558954    
AX        0.2726780337        0.7021037123        0.6568389525    
AX       -0.4533516933       -0.2213038945       -0.7322106990    
AX       -0.3080639494        0.7875596680       -0.3253476284    
AX       -0.4434514118       -0.4278179572E-01    0.3201711751    
AX        0.7970071570        0.3027276228         1.508872083    
AX        0.1707707574E-01   -0.9329447624       -0.5558752394E-01
    38
Energy=    -170.379409654345    
AX        0.8962940230E-01     1.062500987         1.666963085    
AX        0.9712821443       -0.8453265468       -0.6002458700    
AX         1.383746157       -0.6422483815         1.279637567    
AX       -0.1962908839         1.650895157        -1.029558024    
AX         1.429156543        0.1512018678       -0.7980247588    
AX       -0.6071394370        -1.725492670       -0.3885276988    
AX        -1.362099468       -0.1185666596        0.8558735802    
AX        0.3877267497         1.581122654       -0.7963391223E-01
AX       -0.8524250308        0.8963451380        0.6677270325    
AX       -0.4443427984E-02    -1.811061206        0.5807373741    
AX        -1.325884882        0.8687645499E-01    -1.296781824    
AX       -0.3350830784        0.6169676326        -1.428778510    
AX       -0.3672256769        0.1085896435         1.372046431    
AX        -1.095724044        -1.015298393        -1.115607174    
AX       -0.4715842862       -0.4172328206        -1.822105998    
AX        0.5110342928        -1.840744561       -0.4078585403    
AX        -1.318546801        0.3040206219       -0.2056556304    
AX        0.6187815047        0.9000901234       -0.9221659583    
AX       -0.7597884597         1.739456637       -0.6717659868E-01
AX         1.413703749       -0.2455113133        0.2429393771    
AX       -0.5312994412       -0.9071618070        0.9264848001    
AX         1.109667367         1.056061456         1.156553911    
AX        0.4154677720        -1.188627500         1.428965088    
AX        0.4805012629       -0.1381996760        -1.315292177    
AX        -1.108993086       -0.8002706154       -0.3292749728E-01
AX        0.1937610794E-01    -1.135378392        -1.118695181    
AX        0.9582613345        -1.255337407        0.4379318848    
AX         1.186054414        0.8296729860        0.6148311080E-01
AX        -1.182556221         1.134695379       -0.9205675050    
AX        0.4600971420       -0.3390576922        0.7657702012    
AX        0.4778155181        0.6115617463E-01   -0.2413463017    
AX       -0.1491417839         1.743330564        0.8540917479    
AX        0.2384846872        0.7255702546        0.6203409845    
AX       -0.4538480030       -0.2207590642       -0.7348199527    
AX       -0.3183526746        0.7935169074       -0.3415623194    
AX       -0.4466610304       -0.3165825958E-01    0.3127278339    
AX        0.7107107078        0.1540620204         1.682070240    
AX        0.2559086067E-01   -0.9181996942       -0.4501281566E-01
    38
Energy=    -170.469372700550    
AX        0.1263321473         1.054237500         1.657318901    
AX        0.9731512649       -0.8404504020       -0.5990609530    
AX         1.389584549       -0.6248370366         1.277419771    
AX       -0.2029216523         1.651926145        -1.037289292    
AX         1.427695071        0.1559171396       -0.8035546103    
AX       -0.6021541008        -1.723075826       -0.3829031058    
AX        -1.364148097       -0.1175309801        0.8521521399    
AX        0.3779200724         1.591048849       -0.8658987920E-01
AX       -0.8616036026        0.8986131484        0.6590587148    
AX        0.9164008662E-03    -1.802886003        0.5885699720    
AX        -1.326646590        0.8394311773E-01    -1.299329502    
AX       -0.3380791400        0.6157459036        -1.433129163    
AX       -0.3731186997        0.1230919336         1.368284070    
AX        -1.094331072        -1.017473467        -1.113586149    
AX       -0.4715069102       -0.4205907486        -1.822296001    
AX        0.5153443901        -1.835673337       -0.4009045881    
AX        -1.320475551        0.3023401725       -0.2095270928    
AX        0.6141703872        0.9041099178       -0.9278118066    
AX       -0.7653159307         1.741483776       -0.7347373475E-01
AX         1.415219616       -0.2320957642        0.2406320396    
AX       -0.5278470283       -0.8985974854        0.9294323165    
AX         1.132613991        0.9239023352         1.156683823    
AX        0.4200640128        -1.165875177         1.434072292    
AX        0.4795982927       -0.1370487069        -1.317320170    
AX        -1.106562044       -0.7995546648       -0.3137113639E-01
AX        0.2152820698E-01    -1.134588288        -1.114917398    
AX        0.9599477438        -1.242054760        0.4423439501    
AX         1.181602739        0.8419803569        0.5378571577E-01
AX        -1.187382933         1.133302680       -0.9252329589    
AX        0.4669511165       -0.3147449336        0.7756173782    
AX        0.4771324557        0.6611817551E-01   -0.2447848146    
AX       -0.1624569401         1.744417292        0.8552784812    
AX        0.2450498464        0.7436688628        0.6149377251    
AX       -0.4540399915       -0.2205748200       -0.7358335736    
AX       -0.3225848762        0.7956954937       -0.3482109971    
AX       -0.4469641258       -0.2720817184E-01    0.3104416475    
AX        0.6746862173        0.9580919410E-01     1.732362054    
AX        0.2863076580E-01   -0.9124914210       -0.4126406587E-01
    38
Energy=    -173.109443017339    
AX        0.3070203723         1.006311883         1.620421417    
AX        0.9865256968       -0.8138933404       -0.5867596465    
AX         1.391170652       -0.5698447081         1.293194210    
AX       -0.2301630776         1.657598218        -1.063722532    
AX         1.424115318        0.1886255827       -0.8025941437    
AX       -0.5761686167        -1.715581800       -0.3568625729    
AX        -1.370632646       -0.1046799900        0.8455667047    
AX        0.3424940037         1.623236497       -0.1053129391    
AX       -0.8935217986        0.9118493532        0.6214133313    
AX        0.2105064195E-01    -1.764899842        0.6188037474    
AX        -1.326793628        0.7004494143E-01    -1.310639401    
AX       -0.3485259795        0.6126582609        -1.450616097    
AX       -0.3925371845        0.1930481444         1.351059403    
AX        -1.081866673        -1.026510323        -1.097691122    
AX       -0.4640557197       -0.4357496670        -1.818361635    
AX        0.5432061960        -1.809388800       -0.3670042120    
AX        -1.332189024        0.2938313929       -0.2261770511    
AX        0.5972027774        0.9224881640       -0.9389748572    
AX       -0.7755443316         1.755985019       -0.8716428037E-01
AX         1.410258417       -0.1903095386        0.2455714917    
AX       -0.5116119651       -0.8575569195        0.9539760085    
AX         1.156913684        0.5088528478         1.083467246    
AX        0.4379364888        -1.136773117         1.455370090    
AX        0.4817172209       -0.1261557276        -1.316150756    
AX        -1.096066824       -0.7997465137       -0.1782791581E-01
AX        0.3834954458E-01    -1.128526177        -1.096320810    
AX        0.9754337844        -1.195139403        0.4654417995    
AX         1.168270833        0.8860742212        0.2941656630E-01
AX        -1.206969718         1.129106557       -0.9415389687    
AX        0.4542874145       -0.2840350282        0.7849803943    
AX        0.4754187244        0.8730607198E-01   -0.2465734979    
AX       -0.1836379431         1.724727762        0.8770497157    
AX        0.2213850266        0.7673664621        0.5699212768    
AX       -0.4523686195       -0.2179805161       -0.7393494090    
AX       -0.3391609531        0.8056178347       -0.3701486359    
AX       -0.4532650315       -0.9108828629E-02    0.3046040457    
AX        0.5614379807       -0.6902939407E-01     1.846601821    
AX        0.4088495775E-01   -0.8898195813       -0.2706878443E-01
    38
Energy=    -173.134017196276    
AX        0.3188984080         1.015530878         1.626021372    
AX        0.9842331014       -0.8149150790       -0.5876225940    
AX         1.391594379       -0.5724014598         1.290180505    
AX       -0.2323016527         1.657155446        -1.062440728    
AX         1.422993796        0.1879472666       -0.8041451401    
AX       -0.5742290856        -1.720814031       -0.3644625060    
AX        -1.368802816       -0.1043806424        0.8457103266    
AX        0.3420663182         1.625598692       -0.1015588046    
AX       -0.9002588226        0.9128216256        0.6106694446    
AX        0.1055197842E-01    -1.763753264        0.6171423828    
AX        -1.324683131        0.6819798241E-01    -1.315729454    
AX       -0.3490292591        0.6127871162        -1.447245615    
AX       -0.3915477411        0.2127909560         1.348497907    
AX        -1.079644293        -1.027024671        -1.097100129    
AX       -0.4610784911       -0.4362032090        -1.819029508    
AX        0.5415879395        -1.812322568       -0.3673153761    
AX        -1.331783852        0.2814492443       -0.2300096288    
AX        0.5961567742        0.9241497714       -0.9361281814    
AX       -0.7761412564         1.761428698       -0.8881179125E-01
AX         1.410161710       -0.1934037586        0.2433726892    
AX       -0.5083726605       -0.8494270318        0.9622132372    
AX         1.158879089        0.5036152597         1.082818130    
AX        0.4400664142        -1.138751569         1.452922190    
AX        0.4815373044       -0.1250939977        -1.315459788    
AX        -1.089024045       -0.8065279924       -0.1275827759E-01
AX        0.4012217275E-01    -1.129652780        -1.098333680    
AX        0.9705668595        -1.197920308        0.4634868119    
AX         1.170714575        0.8858827723        0.3119671064E-01
AX        -1.208819719         1.124868108       -0.9351835015    
AX        0.4550569491       -0.2835516429        0.7833475486    
AX        0.4754889052        0.8815097306E-01   -0.2445790165    
AX       -0.1939172177         1.722068439        0.8815223877    
AX        0.2245507324        0.7697985211        0.5743317130    
AX       -0.4515206431       -0.2170911636       -0.7379860356    
AX       -0.3394196854        0.8068152732       -0.3673987047    
AX       -0.4509001464       -0.7608984201E-02    0.3038133373    
AX        0.5570233786       -0.7011858311E-01     1.843221128    
AX        0.3922373501E-01   -0.8900942867       -0.2716935974E-01
    38
Energy=    -173.134315246167    
AX        0.3194280182         1.015830141         1.626326135    
AX        0.9839954287       -0.8149487229       -0.5874525546    
AX         1.391686188       -0.5722168000         1.290115047    
AX       -0.2322906352         1.657089486        -1.062346158    
AX         1.422838291        0.1876455348       -0.8044611564    
AX       -0.5742323969        -1.720786324       -0.3645972439    
AX        -1.368596971       -0.1046592997        0.8456638210    
AX        0.3418547775         1.625236029       -0.1013260684    
AX       -0.9008360165        0.9125335130        0.6104213851    
AX        0.1065542615E-01    -1.763792506        0.6172174918    
AX        -1.324446186        0.6890355630E-01    -1.316524266    
AX       -0.3487116405        0.6129807767        -1.447340116    
AX       -0.3913950443        0.2130740017         1.348450470    
AX        -1.080048812        -1.026534842        -1.097053677    
AX       -0.4610005944       -0.4362051820        -1.819257263    
AX        0.5415363807        -1.812252617       -0.3672677146    
AX        -1.331676713        0.2810811123       -0.2304076359    
AX        0.5962861512        0.9240961705       -0.9360347646    
AX       -0.7764483984         1.761260169       -0.8884776768E-01
AX         1.410367047       -0.1933681252        0.2432225423    
AX       -0.5082444508       -0.8492320494        0.9622677081    
AX         1.159031007        0.5034419722         1.082555472    
AX        0.4400460226        -1.138584243         1.453236927    
AX        0.4814773518       -0.1252063508        -1.315299956    
AX        -1.088771338       -0.8065504494       -0.1263234317E-01
AX        0.3986173749E-01    -1.129658242        -1.098144077    
AX        0.9705943330        -1.197972214        0.4635935045    
AX         1.170762894        0.8857088367        0.3116208609E-01
AX        -1.208926490         1.125038900       -0.9352093043    
AX        0.4549853969       -0.2834000666        0.7833389542    
AX        0.4754620057        0.8821887585E-01   -0.2446579596    
AX       -0.1945262143         1.721560732        0.8816186656    
AX        0.2245262824        0.7696233591        0.5743928057    
AX       -0.4512900878       -0.2171518536       -0.7375365140    
AX       -0.3392559032        0.8068586127       -0.3671302287    
AX       -0.4509857811       -0.7686877953E-02    0.3040797479    
AX        0.5572403150       -0.6976645370E-01     1.843208535    
AX        0.3904861963E-01   -0.8902085589       -0.2734452670E-01
    38
Energy=    -173.134317008762    
AX        0.3194315197         1.015836256         1.626323749    
AX        0.9839614349       -0.8149882175       -0.5874643136    
AX         1.391726820       -0.5721753654         1.290031049    
AX       -0.2322517808         1.657127353        -1.062288117    
AX         1.422826378        0.1876263364       -0.8044675503    
AX       -0.5742947810        -1.720792533       -0.3645057942    
AX        -1.368596916       -0.1046819991        0.8456347583    
AX        0.3418190002         1.625280696       -0.1012316362    
AX       -0.9008784831        0.9124970367        0.6104230752    
AX        0.1066946953E-01    -1.763802522        0.6172785194    
AX        -1.324406367        0.6891041473E-01    -1.316566313    
AX       -0.3486485233        0.6129882598        -1.447330731    
AX       -0.3913772194        0.2130831738         1.348431938    
AX        -1.080030499        -1.026549071        -1.097058863    
AX       -0.4609704395       -0.4362148173        -1.819261907    
AX        0.5414677163        -1.812301948       -0.3672401797    
AX        -1.331650212        0.2811137093       -0.2304531738    
AX        0.5963069404        0.9241222449       -0.9359872407    
AX       -0.7764925788         1.761224032       -0.8881085157E-01
AX         1.410365941       -0.1933700964        0.2431702459    
AX       -0.5082332776       -0.8492243224        0.9622590728    
AX         1.159033245        0.5034563656         1.082496875    
AX        0.4400869160        -1.138541419         1.453233410    
AX        0.4814898089       -0.1252252589        -1.315289212    
AX        -1.088805248       -0.8065138617       -0.1265408880E-01
AX        0.3983507150E-01    -1.129701099        -1.098123666    
AX        0.9705847435        -1.197976804        0.4635660340    
AX         1.170743710        0.8857215793        0.3115197441E-01
AX        -1.208871738         1.125052485       -0.9352678716    
AX        0.4549862825       -0.2833888683        0.7833094474    
AX        0.4754666546        0.8819913252E-01   -0.2446629572    
AX       -0.1946289791         1.721509041        0.8817111180    
AX        0.2245089993        0.7696338523        0.5743903853    
AX       -0.4512793793       -0.2171616648       -0.7375412892    
AX       -0.3392352252        0.8068720691       -0.3671136233    
AX       -0.4509874828       -0.7686433193E-02    0.3040652392    
AX        0.5572980341       -0.6972823203E-01     1.843174972    
AX        0.3903044685E-01   -0.8902295028       -0.2733248137E-01
