    38
Energy=    -172.877736411133    
AX        0.3168421627        0.8689147465         1.688701570    
AX        0.9298786643       -0.9237325726       -0.5876453227    
AX         1.138919872        0.3110758217         1.143091857    
AX       -0.1091327119         1.641029447       -0.9774702242    
AX         1.438219560        0.5403685229E-01   -0.7425568433    
AX       -0.6906183743        -1.734190729       -0.4613146583    
AX        -1.412077574       -0.1278293584        0.8185014125    
AX        0.4323502810         1.527374216       -0.5974994617E-02
AX       -0.8758004299        0.8697568418        0.6356642571    
AX       -0.1472852137        -1.865026919        0.5302933106    
AX        -1.295262229        0.1454528275        -1.334676064    
AX       -0.2828303444        0.6277504701        -1.412666711    
AX       -0.4351007272        0.1208325853         1.360023492    
AX        -1.130540847       -0.9703313823        -1.160668831    
AX       -0.4519892582       -0.3913806237        -1.837885014    
AX        0.4174060754        -1.897955984       -0.4348948947    
AX        -1.320167678        0.3010834230       -0.2392088778    
AX        0.6647567116        0.8488071125       -0.8614664747    
AX       -0.6728461730         1.739928012       -0.1719043179E-01
AX         1.365706169       -0.3699107453        0.2886275389    
AX       -0.5971663393       -0.9327609771        0.9284356555    
AX        0.9728384255         1.404426353        0.9628931192    
AX         1.287993512       -0.7891670961         1.319988038    
AX        0.4933149812       -0.1686498976        -1.291741792    
AX        -1.152486397       -0.8094552198       -0.6387025746E-01
AX       -0.1791636564E-01    -1.149099607        -1.141862477    
AX        0.8559063684        -1.353614571        0.4437197179    
AX         1.207839441        0.7297398607        0.1110282995    
AX        -1.122565854         1.169789917       -0.8971825743    
AX        0.3895566748       -0.4311627685        0.8086587145    
AX        0.4697704046       -0.7875851651E-02   -0.2101753296    
AX       -0.1281929526         1.618595689        0.9608640929    
AX        0.2373359941        0.6499523843        0.6274729943    
AX       -0.4601048811       -0.2249326329       -0.7457919630    
AX       -0.2920861574        0.7689570546       -0.3238602060    
AX       -0.4762042826       -0.6777539982E-01    0.3065016187    
AX        0.4875477543       -0.2206512440         1.874837026    
AX       -0.3580825874E-01   -0.9620000351       -0.6119877202E-01
    38
Energy=    -172.877554084784    
AX        0.3163036668        0.8683713603         1.688928762    
AX        0.9298528347       -0.9235993635       -0.5881310141    
AX         1.138577027        0.3106892643         1.143077953    
AX       -0.1089952204         1.641219932       -0.9775028823    
AX         1.437943146        0.5440616384E-01   -0.7430276489    
AX       -0.6906392668        -1.734099357       -0.4599478527    
AX        -1.412609134       -0.1271175799        0.8178582333    
AX        0.4326820496         1.527371716       -0.6079949480E-02
AX       -0.8756828309        0.8698341999        0.6357702804    
AX       -0.1463171222        -1.864296277        0.5314483843    
AX        -1.295186986        0.1451358875        -1.334633711    
AX       -0.2830586957        0.6277740243        -1.412561567    
AX       -0.4353217845        0.1203029316         1.359992891    
AX        -1.130063421       -0.9708937244        -1.160569777    
AX       -0.4518236748       -0.3917536131        -1.837825474    
AX        0.4173458314        -1.898148973       -0.4344147258    
AX        -1.319954136        0.3013536447       -0.2394032507    
AX        0.6646215368        0.8489347277       -0.8617132722    
AX       -0.6723619039         1.740263009       -0.1702665029E-01
AX         1.365485952       -0.3694785431        0.2882277687    
AX       -0.5984223220       -0.9326461154        0.9280981274    
AX        0.9725546655         1.403876678        0.9633057482    
AX         1.288316780       -0.7892934042         1.319295594    
AX        0.4932034589       -0.1685590356        -1.292034972    
AX        -1.152796491       -0.8090193988       -0.6414414511E-01
AX       -0.1784321421E-01    -1.149396767        -1.141517046    
AX        0.8567695363        -1.353401755        0.4430678605    
AX         1.207748848        0.7297300020        0.1111451839    
AX        -1.122406803         1.170023306       -0.8969875077    
AX        0.3892990976       -0.4315343782        0.8086907644    
AX        0.4696406306       -0.7781828482E-02   -0.2104010198    
AX       -0.1280242556         1.618582646        0.9608334814    
AX        0.2372685472        0.6499096197        0.6275639350    
AX       -0.4599404091       -0.2249653131       -0.7457412634    
AX       -0.2920312064        0.7691340647       -0.3238088242    
AX       -0.4762576983       -0.6767430311E-01    0.3064809010    
AX        0.4877143661       -0.2213620968         1.874764825    
AX       -0.3559139803E-01   -0.9618913520       -0.6107813722E-01
    38
Energy=    -171.021231572085    
AX       -0.9218026996E-01    0.9808942665         1.678828119    
AX        0.9197744574       -0.9386785913       -0.5960530609    
AX         1.531293075        0.3260156546         1.089745188    
AX       -0.9090888510E-01     1.636427385       -0.9450178949    
AX         1.436895308        0.3825550976E-01   -0.7318147191    
AX       -0.7124856892        -1.731136872       -0.4699153932    
AX        -1.423032644       -0.1325485795        0.8171386915    
AX        0.4594038621         1.493179176        0.1719590170E-01
AX       -0.8186956745        0.8608491284        0.7119724211    
AX       -0.1439470517        -1.899101980        0.5047192504    
AX        -1.301173802        0.1495476320        -1.310942821    
AX       -0.2760873478        0.6297606496        -1.393904277    
AX       -0.4527203138       -0.3363515266E-02     1.384446826    
AX        -1.135879568       -0.9665758418        -1.178640197    
AX       -0.4577770562       -0.3743742211        -1.836131437    
AX        0.4016740512        -1.910465774       -0.4627964575    
AX        -1.308851432        0.3353221045       -0.2110064755    
AX        0.6721288582        0.8338836492       -0.8494221836    
AX       -0.7019954553         1.713503036       -0.1373420796E-01
AX         1.354630718       -0.4031388178        0.2842814981    
AX       -0.6405113023       -0.9879869404        0.8797575277    
AX        0.9276560566         1.280650117         1.121447602    
AX         1.281037852       -0.7444323179         1.337459196    
AX        0.4906089432       -0.1744413667        -1.285671245    
AX        -1.175096253       -0.7918237881       -0.9016520201E-01
AX       -0.3108287538E-01    -1.149456079        -1.153618953    
AX        0.8575207113        -1.386802628        0.4303392173    
AX         1.202188360        0.7077247113        0.1306006079    
AX        -1.107601190         1.171411915       -0.9010789313    
AX        0.3755253528       -0.4869347000        0.8068229152    
AX        0.4649462611       -0.2373879421E-01   -0.1998829910    
AX       -0.1042758658         1.712397066        0.9020177834    
AX        0.2468938616        0.6032563682        0.6785259875    
AX       -0.4637542970       -0.2254847485       -0.7392915143    
AX       -0.2816085493        0.7607320723       -0.2959350240    
AX       -0.4801325765       -0.8443614742E-01    0.3176437714    
AX        0.6226784082        0.1600063041         1.643980209    
AX       -0.4505803755E-01   -0.9788950428       -0.7189972869E-01
    38
Energy=    -171.026495524674    
AX       -0.9923358254E-01    0.9805626599         1.686269361    
AX        0.9192755155       -0.9373366269       -0.5934784789    
AX         1.575024235        0.3217619040         1.088867292    
AX       -0.9248955783E-01     1.635979568       -0.9477300166    
AX         1.436122857        0.4089084549E-01   -0.7259060671    
AX       -0.7123681523        -1.732003621       -0.4719910992    
AX        -1.424630898       -0.1342193626        0.8186818813    
AX        0.4595561273         1.494517441        0.1260875596E-01
AX       -0.8300845655        0.8606984540        0.7093479856    
AX       -0.1467895421        -1.899265773        0.5041402920    
AX        -1.300974196        0.1495237817        -1.313925878    
AX       -0.2762218469        0.6294282488        -1.395205456    
AX       -0.4479640831       -0.2161220634E-02     1.383055000    
AX        -1.135711783       -0.9672054953        -1.180368030    
AX       -0.4563273203       -0.3750573666        -1.837022478    
AX        0.4020747843        -1.909680506       -0.4615096421    
AX        -1.313169108        0.3329828196       -0.2137914766    
AX        0.6717181486        0.8335509693       -0.8472687022    
AX       -0.6999734467         1.714384122       -0.1349397698E-01
AX         1.352442895       -0.4022748957        0.2875023626    
AX       -0.6413960243       -0.9873412337        0.8799502330    
AX        0.9294634372         1.253057886         1.142641671    
AX         1.278308201       -0.7380327248         1.339882321    
AX        0.4912068037       -0.1740556677        -1.284460062    
AX        -1.177029817       -0.7940058300       -0.9121163698E-01
AX       -0.3017143570E-01    -1.149427288        -1.153604201    
AX        0.8543433400        -1.385329362        0.4332259826    
AX         1.196439656        0.7043771477        0.1433455088    
AX        -1.109615904         1.171558460       -0.9016933183    
AX        0.3731041939       -0.4832698318        0.8051865577    
AX        0.4620302283       -0.2310021472E-01   -0.1990971003    
AX       -0.9959279293E-01     1.703145667        0.9019298180    
AX        0.2331726984        0.6109819789        0.6726502622    
AX       -0.4650875819       -0.2260944460       -0.7405749010    
AX       -0.2854034547        0.7608051621       -0.2987708571    
AX       -0.4848104653       -0.8455501663E-01    0.3158825136    
AX        0.6418369034        0.1849308005         1.617835347    
AX       -0.4707446800E-01   -0.9787214317       -0.7189976631E-01
    38
Energy=    -171.026505355645    
AX       -0.9888516655E-01    0.9805636701         1.686454355    
AX        0.9192816847       -0.9373396160       -0.5933525453    
AX         1.575510074        0.3217858336         1.088832950    
AX       -0.9259848945E-01     1.635997155       -0.9477999071    
AX         1.436097099        0.4096066593E-01   -0.7257868115    
AX       -0.7124183482        -1.731990606       -0.4720524433    
AX        -1.424670046       -0.1343485837        0.8186278393    
AX        0.4594273353         1.494545929        0.1258345286E-01
AX       -0.8301796261        0.8606558997        0.7093780881    
AX       -0.1469050452        -1.899330072        0.5041048615    
AX        -1.300897147        0.1495912479        -1.314092930    
AX       -0.2761831762        0.6294286109        -1.395274110    
AX       -0.4478640419       -0.2037105485E-02     1.383017431    
AX        -1.135732660       -0.9671311066        -1.180411503    
AX       -0.4562198141       -0.3750857209        -1.837061997    
AX        0.4020534320        -1.909671826       -0.4614676368    
AX        -1.313218824        0.3329547357       -0.2138893249    
AX        0.6716706222        0.8335768360       -0.8472424993    
AX       -0.6999993729         1.714337841       -0.1345974420E-01
AX         1.352377460       -0.4022407795        0.2876094484    
AX       -0.6413664121       -0.9873272133        0.8800110079    
AX        0.9294751528         1.252875025         1.142669615    
AX         1.278254259       -0.7379848659         1.339943703    
AX        0.4912451358       -0.1740643639        -1.284415686    
AX        -1.177055837       -0.7940557923       -0.9123282314E-01
AX       -0.3015624410E-01    -1.149409024        -1.153549544    
AX        0.8542540305        -1.385350283        0.4333380290    
AX         1.196328647        0.7044096451        0.1434741017    
AX        -1.109657142         1.171566011       -0.9017588826    
AX        0.3730383068       -0.4832409222        0.8051801958    
AX        0.4619163957       -0.2309390008E-01   -0.1990916139    
AX       -0.9961092347E-01     1.703032851        0.9019905139    
AX        0.2330500382        0.6110209588        0.6726237624    
AX       -0.4650818381       -0.2260713222       -0.7406057866    
AX       -0.2854734345        0.7607463254       -0.2988268885    
AX       -0.4848338235       -0.8453730896E-01    0.3158460332    
AX        0.6421495754        0.1850180250         1.617588987    
AX       -0.4712183575E-01   -0.9787568560       -0.7190169453E-01
    38
Energy=    -171.026506373490    
AX       -0.9871792541E-01    0.9805952913         1.686522508    
AX        0.9192726560       -0.9373440834       -0.5933301533    
AX         1.575489420        0.3218221606         1.088804590    
AX       -0.9262551049E-01     1.635993181       -0.9477825135    
AX         1.436100795        0.4095761501E-01   -0.7257737071    
AX       -0.7124297423        -1.731981631       -0.4721171045    
AX        -1.424644178       -0.1343354078        0.8186557476    
AX        0.4593919280         1.494556670        0.1259409374E-01
AX       -0.8301818507        0.8606367109        0.7093798326    
AX       -0.1470233672        -1.899332487        0.5040626923    
AX        -1.300869772        0.1495754390        -1.314130507    
AX       -0.2761697130        0.6294180090        -1.395278810    
AX       -0.4478396785       -0.1962213323E-02     1.383027660    
AX        -1.135724572       -0.9671221348        -1.180441767    
AX       -0.4561755008       -0.3751022345        -1.837079280    
AX        0.4020298164        -1.909681791       -0.4614590320    
AX        -1.313210404        0.3329239325       -0.2139064425    
AX        0.6716670681        0.8335841174       -0.8472428426    
AX       -0.7000792020         1.714301014       -0.1345734670E-01
AX         1.352354993       -0.4022362415        0.2876167050    
AX       -0.6413648793       -0.9872941970        0.8800394114    
AX        0.9294789359         1.252922424         1.142685683    
AX         1.278289570       -0.7379923264         1.339917686    
AX        0.4912671836       -0.1740689067        -1.284408931    
AX        -1.177039671       -0.7940577965       -0.9123666735E-01
AX       -0.3013854755E-01    -1.149416979        -1.153561378    
AX        0.8541983849        -1.385372294        0.4333591988    
AX         1.196331484        0.7044438216        0.1434521444    
AX        -1.109667746         1.171538286       -0.9017865583    
AX        0.3730371494       -0.4832507909        0.8051985451    
AX        0.4619237886       -0.2308160880E-01   -0.1990860928    
AX       -0.9967673999E-01     1.703004760        0.9019979993    
AX        0.2330744289        0.6110239856        0.6726414338    
AX       -0.4650701935       -0.2260791857       -0.7406082900    
AX       -0.2854796185        0.7607405447       -0.2988255822    
AX       -0.4848326705       -0.8452775904E-01    0.3158434906    
AX        0.6421893242        0.1849582590         1.617615129    
AX       -0.4713544302E-01   -0.9787561528       -0.7190154445E-01
