    38
 Energy=    -171.065101036374
AX            0.5171617669       -0.0412477072        1.8776598390
AX            1.3160187780       -1.0791241820       -0.3926164013
AX            1.4068440290        0.3360954005        1.2672056350
AX           -0.2028457383        0.9547327849       -0.6841733082
AX            1.2870089440       -0.0741694507       -0.8643459547
AX           -0.4911990874       -1.1149645160       -0.2769999646
AX           -1.3827706900        0.0103883190        0.8399650200
AX            0.3488860226        1.6934145530       -0.0614815233
AX           -1.0722382220        1.0834893250        0.9042245855
AX           -0.0905678752       -1.6882295110        0.5979478222
AX           -1.5337098230        0.1615815107       -1.0284185250
AX           -0.6725072805        0.5253272947       -1.6180403130
AX           -0.4349739625        0.2879826569        1.3424099520
AX           -1.1363157470       -0.8865367666       -1.1573626740
AX           -0.2649195512       -0.5250728690       -1.7350473700
AX            0.4155823501       -1.7424314210       -0.4000027976
AX           -1.0825874140        0.5732183730       -0.0860805300
AX            0.9268840030        1.0016166360       -0.7268140224
AX           -0.7704929621        1.6379243340       -0.0203872768
AX            1.3639641010       -0.1669213318        0.2418279172
AX           -1.0061340000       -1.0556876510        0.7221052884
AX            0.4518290979        0.9882499607        1.3579914160
AX            1.0687975960       -0.7623245077        1.1599949800
AX            0.8879187478       -0.5749039491       -1.7992234790
AX           -1.3928333200       -0.4891852591       -0.1513669105
AX            0.3687391342       -0.7369867626       -0.8576724397
AX            1.0404711230       -1.6776698840        0.5270691786
AX            0.9921535995        0.9000093686        0.3716451319
AX           -1.2321675210        1.2320218950       -0.9582776487
AX           -0.0606544610       -0.7743322508        1.2262049650
AX            0.3619223208        0.2818001042       -1.3413375390
AX           -0.1899641701        1.7865329550        0.9256449595
AX            0.4215562139        0.1654385970       -0.2479116653
AX           -0.5073340660       -0.0993434527       -0.7339430230
AX           -0.1350624182        0.8338626521        0.4041879099
AX           -0.4419151426       -0.2080863801        0.3390947557
AX            0.4771206359        0.0638088796        0.8135913751
AX            0.4483349864       -0.8202777471        0.2227326361
    38
 Energy=    -169.741979951537
AX            0.5180683312        0.0340220987        1.8564609760
AX            1.2294992010       -1.0173023480       -0.5897967863
AX            1.4217454180        0.2297028275        1.2371383050
AX           -0.2080871773        0.9852061466       -0.6803338455
AX            1.3578461330        0.0651008413       -0.7621739643
AX           -0.5215147181       -1.2277545770       -0.2102290423
AX           -1.2582544220       -0.0167270704        0.9216688709
AX            0.4162224231        1.5944582470        0.1043168827
AX           -1.1726622600        1.0761230300        0.8712978669
AX           -0.0050378394       -1.5621946550        0.7665666460
AX           -1.5357039120        0.1252349362       -1.0860928850
AX           -0.6573882168        0.6011423601       -1.6310412470
AX           -0.3761447565        0.5000722081        1.3983959600
AX           -1.0136987170       -0.9312290147       -1.1502119720
AX           -0.2811435637       -0.4366801080       -1.8102061080
AX            0.4268196670       -1.7773319160       -0.3499379118
AX           -1.1399811040        0.5448133335       -0.0897232823
AX            0.8835277695        1.0683249210       -0.7534745073
AX           -0.7631762716        1.6336795220       -0.0008334404
AX            1.3825044050       -0.3455204577        0.2889169052
AX           -1.0464663410       -1.0911833340        0.7330151569
AX            0.5960332078        1.0331844080        1.1725611380
AX            0.8486411054       -0.8514283273        1.2008057150
AX            0.9874622240       -0.5772408927       -1.6131608350
AX           -1.3921632160       -0.5214867517       -0.1753031103
AX            0.2044476979       -0.7984400295       -0.8973803262
AX            1.2183712890       -1.5222487950        0.4099382753
AX            1.1442505880        0.7390214254        0.2599579639
AX           -1.2592563660        1.2191715120       -0.9361918082
AX           -0.2423730280       -0.5990818027        1.2964776300
AX            0.3764282035        0.2916783459       -1.3428004940
AX           -0.2671721177        1.6803516560        1.0062078010
AX            0.4074455255        0.1539234969       -0.2821562939
AX           -0.5278581783       -0.0484936403       -0.7646392414
AX           -0.1999950527        0.7794718080        0.3841354402
AX           -0.4469669625       -0.2579004497        0.2826841169
AX            0.4598147369        0.0506400559        0.7795833968
AX            0.4359162957       -0.8230790125        0.1555580549
    38
 Energy=    -169.662332905412
AX            0.5046270544        0.0554862804        1.8419830670
AX            1.1832710350       -1.0148385170       -0.5994262185
AX            1.4150045570        0.1960686674        1.2318957010
AX           -0.1255511788        1.0870253550       -0.7216216121
AX            1.3694208510        0.0508429639       -0.7777805714
AX           -0.5346491439       -1.2922091360       -0.1779152771
AX           -1.2212999040       -0.0344439027        0.9506216472
AX            0.4445741206        1.5187145320        0.1388487464
AX           -1.2082223300        1.0712008510        0.8709596252
AX            0.0103906735       -1.5671934080        0.7910998539
AX           -1.5697655680        0.0725368337       -1.0703918440
AX           -0.6063045374        0.6488023608       -1.6941701390
AX           -0.3632952603        0.5397334042        1.3674262570
AX           -0.9469056339       -0.8668839420       -1.1061963160
AX           -0.2452765850       -0.3949038834       -1.8076939290
AX            0.4271524082       -1.7792177980       -0.3314329566
AX           -1.2621425510        0.4783993681       -0.0416437031
AX            0.9667735731        1.0788925770       -0.7443170672
AX           -0.7933531962        1.6259479880       -0.0141600577
AX            1.3821630010       -0.3612736565        0.2768651049
AX           -1.0435352500       -1.1133739840        0.7627080467
AX            0.6353261642        1.0383046510        1.1710780190
AX            0.8495239794       -0.8187704419        1.1977899740
AX            0.9107952960       -0.5925008148       -1.6009653750
AX           -1.4299399410       -0.5926814208       -0.1548341294
AX            0.1400780694       -0.7401929965       -0.8469791820
AX            1.2214466470       -1.5061258180        0.4149741357
AX            1.1985221030        0.7150511315        0.2617985842
AX           -1.2077418840        1.1159307370       -0.9125692510
AX           -0.2407542879       -0.5754004181        1.2689748320
AX            0.4076341715        0.3431605072       -1.3492002780
AX           -0.2715942664        1.6236663260        0.9870802483
AX            0.4229158742        0.1784318609       -0.2933919859
AX           -0.5421246420        0.0937693422       -0.7661270914
AX           -0.2755302402        0.7469299836        0.3142753712
AX           -0.4715913514       -0.2896071577        0.2326971647
AX            0.4419847738        0.0784453935        0.7557514260
AX            0.4279733995       -0.8177238206        0.1739891800
    38
 Energy=    -169.662862917546
AX            0.5036691750        0.0559866283        1.8409399670
AX            1.1813492770       -1.0146334170       -0.5989622872
AX            1.4147911740        0.1958405461        1.2319350570
AX           -0.1222066604        1.0908462490       -0.7230448350
AX            1.3699306050        0.0503828126       -0.7777367822
AX           -0.5351727915       -1.2953054540       -0.1765653887
AX           -1.2194232680       -0.0362347489        0.9500859619
AX            0.4455595799        1.5159362280        0.1400119138
AX           -1.2092166810        1.0702303450        0.8693883102
AX            0.0118929697       -1.5688439500        0.7918562403
AX           -1.5740434590        0.0689740506       -1.0652453690
AX           -0.5984224426        0.6570484471       -1.6979831080
AX           -0.3632322140        0.5403700911        1.3655033940
AX           -0.9472473731       -0.8647668486       -1.1020237410
AX           -0.2473402177       -0.3908472490       -1.8048830250
AX            0.4273414153       -1.7797055940       -0.3299279798
AX           -1.2655635550        0.4747751958       -0.0411025107
AX            0.9701014594        1.0796006630       -0.7438148856
AX           -0.7940445595        1.6264148850       -0.0156707841
AX            1.3821275920       -0.3617782816        0.2768927596
AX           -1.0427437150       -1.1157559630        0.7643254896
AX            0.6364919317        1.0386889830        1.1719543080
AX            0.8500228311       -0.8173903093        1.1979070300
AX            0.9075995344       -0.5933959221       -1.5997573900
AX           -1.4337173640       -0.5971336542       -0.1506792309
AX            0.1375136112       -0.7380704422       -0.8443874913
AX            1.2214205990       -1.5057818190        0.4157466143
AX            1.2004366770        0.7143784509        0.2618382034
AX           -1.2044819560        1.1107032970       -0.9125771532
AX           -0.2398313329       -0.5751021449        1.2653039500
AX            0.4104870254        0.3453079432       -1.3498151580
AX           -0.2720113702        1.6221151140        0.9855779698
AX            0.4229827992        0.1798771426       -0.2944436509
AX           -0.5428776054        0.0994137210       -0.7691633583
AX           -0.2782791213        0.7459859025        0.3111128305
AX           -0.4729402716       -0.2907040754        0.2276373510
AX            0.4417511295        0.0801781005        0.7542920797
AX            0.4273265716       -0.8176049226        0.1754746973
    38
 Energy=    -169.673937334527
AX            0.4987441176        0.0570265531        1.8346983320
AX            1.1698795560       -1.0126203400       -0.5951665026
AX            1.4147501180        0.1966487996        1.2326295050
AX           -0.1058657916        1.1107463770       -0.7290516781
AX            1.3741662440        0.0486766945       -0.7782362463
AX           -0.5392370107       -1.3140807720       -0.1662146725
AX           -1.2097427720       -0.0474604660        0.9400869425
AX            0.4511626199        1.5037145300        0.1459771177
AX           -1.2150756710        1.0623073110        0.8629995224
AX            0.0209904779       -1.5825349220        0.7963331988
AX           -1.5953357610        0.0535022768       -1.0390090800
AX           -0.5535848082        0.7051401685       -1.7190873010
AX           -0.3636010260        0.5402822928        1.3551101060
AX           -0.9520481426       -0.8539730917       -1.0746577490
AX           -0.2617374969       -0.3683371149       -1.7855933680
AX            0.4283324868       -1.7831087560       -0.3194031303
AX           -1.2782786590        0.4624869865       -0.0429951939
AX            0.9863424748        1.0839576520       -0.7408742829
AX           -0.8036225381        1.6223597930       -0.0236514457
AX            1.3815757830       -0.3632322434        0.2772457170
AX           -1.0393143670       -1.1308010330        0.7743799715
AX            0.6405019461        1.0409620110        1.1760201960
AX            0.8559923173       -0.8098141191        1.1996009520
AX            0.8876144372       -0.5995325819       -1.5916903720
AX           -1.4553383590       -0.6145971959       -0.1236300847
AX            0.1216514143       -0.7300963009       -0.8278031152
AX            1.2234000940       -1.5039168200        0.4204327190
AX            1.2103789300        0.7122921359        0.2619689004
AX           -1.1910549570        1.0890956690       -0.9198821213
AX           -0.2328358335       -0.5757440472        1.2401329720
AX            0.4272525428        0.3578577071       -1.3536784180
AX           -0.2762840216        1.6135522310        0.9767645451
AX            0.4246385149        0.1847182692       -0.3005372172
AX           -0.5447907312        0.1299845240       -0.7891717430
AX           -0.2888177303        0.7406779051        0.2965089932
AX           -0.4777355318       -0.2959272466        0.1969875666
AX            0.4428146988        0.0886500341        0.7461499457
AX            0.4241124347       -0.8188628716        0.1863065194
    38
 Energy=    -169.673937702337
AX            0.4987849197        0.0570136481        1.8347091040
AX            1.1698882920       -1.0126131150       -0.5951360706
AX            1.4147740260        0.1966874561        1.2326261390
AX           -0.1059072200        1.1107284160       -0.7290264301
AX            1.3741534830        0.0486966023       -0.7781724368
AX           -0.5392583316       -1.3140749080       -0.1662312929
AX           -1.2096882610       -0.0474390481        0.9400812475
AX            0.4511756393        1.5037032870        0.1459780184
AX           -1.2150587020        1.0622979500        0.8630444682
AX            0.0209663027       -1.5825614150        0.7962936252
AX           -1.5953768240        0.0534785742       -1.0390098050
AX           -0.5535457631        0.7051495007       -1.7191181990
AX           -0.3635611488        0.5402955291        1.3551555340
AX           -0.9520563746       -0.8539852322       -1.0746818390
AX           -0.2617188805       -0.3683421339       -1.7855883180
AX            0.4283070600       -1.7830855080       -0.3194410262
AX           -1.2782575230        0.4625247821       -0.0430092700
AX            0.9863092391        1.0839755550       -0.7408826006
AX           -0.8037204577        1.6222888590       -0.0236569187
AX            1.3816000000       -0.3632628334        0.2772881673
AX           -1.0393190920       -1.1307796800        0.7743604152
AX            0.6405275112        1.0409793710        1.1760079480
AX            0.8560279891       -0.8098062953        1.1996115240
AX            0.8876325054       -0.5995291003       -1.5916519390
AX           -1.4553368830       -0.6145686213       -0.1236497689
AX            0.1216490932       -0.7300870247       -0.8277852257
AX            1.2233390430       -1.5039717400        0.4204528056
AX            1.2103912620        0.7122664361        0.2619383715
AX           -1.1910900370        1.0890714860       -0.9199546205
AX           -0.2328118106       -0.5757592391        1.2401054120
AX            0.4272588884        0.3578606685       -1.3536649190
AX           -0.2762748138        1.6135714770        0.9767534350
AX            0.4246034595        0.1847311519       -0.3005336506
AX           -0.5448178212        0.1299750090       -0.7892091651
AX           -0.2888157868        0.7406818057        0.2965605328
AX           -0.4777247038       -0.2959200419        0.1969528634
AX            0.4428399339        0.0886613062        0.7461561594
AX            0.4241117865       -0.8188529365        0.1863277248
    38
 Energy=    -169.673937704863
AX            0.4987861877        0.0570140398        1.8347076620
AX            1.1698874800       -1.0126127190       -0.5951359059
AX            1.4147750810        0.1966886690        1.2326251490
AX           -0.1059060921        1.1107263010       -0.7290251082
AX            1.3741542800        0.0486970753       -0.7781713377
AX           -0.5392600743       -1.3140741080       -0.1662292720
AX           -1.2096895370       -0.0474391700        0.9400812463
AX            0.4511748602        1.5037040270        0.1459784035
AX           -1.2150603800        1.0622967210        0.8630455165
AX            0.0209673168       -1.5825602050        0.7962962929
AX           -1.5953764590        0.0534793420       -1.0390101550
AX           -0.5535446886        0.7051497245       -1.7191179290
AX           -0.3635614032        0.5402950420        1.3551557850
AX           -0.9520571783       -0.8539865236       -1.0746830850
AX           -0.2617179186       -0.3683419952       -1.7855886280
AX            0.4283054135       -1.7830849490       -0.3194415849
AX           -1.2782571010        0.4625249123       -0.0430092593
AX            0.9863102601        1.0839765320       -0.7408832124
AX           -0.8037200964        1.6222883720       -0.0236551361
AX            1.3815995700       -0.3632634581        0.2772884976
AX           -1.0393199360       -1.1307795900        0.7743620157
AX            0.6405272209        1.0409800860        1.1760060470
AX            0.8560277100       -0.8098066147        1.1996108570
AX            0.8876338123       -0.5995281328       -1.5916509460
AX           -1.4553365330       -0.6145689721       -0.1236504004
AX            0.1216488520       -0.7300894055       -0.8277862310
AX            1.2233387410       -1.5039716280        0.4204514051
AX            1.2103909430        0.7122663298        0.2619366589
AX           -1.1910876770        1.0890719490       -0.9199537187
AX           -0.2328116346       -0.5757577784        1.2401042700
AX            0.4272599511        0.3578614010       -1.3536659700
AX           -0.2762768699        1.6135706350        0.9767552193
AX            0.4246027745        0.1847299552       -0.3005345659
AX           -0.5448179829        0.1299736292       -0.7892100497
AX           -0.2888158841        0.7406814051        0.2965616771
AX           -0.4777251118       -0.2959197123        0.1969526284
AX            0.4428411441        0.0886617166        0.7461555205
AX            0.4241109611       -0.8188529044        0.1863276446
    38
 Energy=    -169.673937705203
AX            0.4987867476        0.0570149413        1.8347072020
AX            1.1698877360       -1.0126125750       -0.5951359689
AX            1.4147752830        0.1966895039        1.2326243030
AX           -0.1059062057        1.1107259600       -0.7290246668
AX            1.3741551880        0.0486977445       -0.7781702671
AX           -0.5392604338       -1.3140743300       -0.1662293211
AX           -1.2096895580       -0.0474392986        0.9400812151
AX            0.4511749548        1.5037043200        0.1459789128
AX           -1.2150605410        1.0622964750        0.8630453072
AX            0.0209664090       -1.5825596770        0.7962968008
AX           -1.5953767740        0.0534795082       -1.0390097640
AX           -0.5535447868        0.7051490778       -1.7191178020
AX           -0.3635615461        0.5402949868        1.3551557740
AX           -0.9520575631       -0.8539864480       -1.0746831230
AX           -0.2617170851       -0.3683423779       -1.7855883380
AX            0.4283050746       -1.7830848530       -0.3194427066
AX           -1.2782566040        0.4625247841       -0.0430092899
AX            0.9863099035        1.0839770270       -0.7408830621
AX           -0.8037198456        1.6222886400       -0.0236548307
AX            1.3815995220       -0.3632639387        0.2772885326
AX           -1.0393201100       -1.1307794340        0.7743620354
AX            0.6405270521        1.0409799750        1.1760055970
AX            0.8560281230       -0.8098061649        1.1996105320
AX            0.8876344670       -0.5995273771       -1.5916502840
AX           -1.4553367380       -0.6145688345       -0.1236502417
AX            0.1216487456       -0.7300903291       -0.8277862771
AX            1.2233381330       -1.5039723280        0.4204511213
AX            1.2103908020        0.7122659906        0.2619359932
AX           -1.1910876250        1.0890720590       -0.9199536364
AX           -0.2328117191       -0.5757575530        1.2401046990
AX            0.4272603033        0.3578620212       -1.3536661060
AX           -0.2762772113        1.6135704790        0.9767557369
AX            0.4246027185        0.1847292774       -0.3005349725
AX           -0.5448179041        0.1299729922       -0.7892102482
AX           -0.2888156191        0.7406814431        0.2965617333
AX           -0.4777250810       -0.2959198489        0.1969527519
AX            0.4428409755        0.0886615155        0.7461551524
AX            0.4241108127       -0.8188533547        0.1863275052
    38
 Energy=    -169.673937705251
AX            0.4987868900        0.0570150596        1.8347069964
AX            1.1698879676       -1.0126116548       -0.5951357825
AX            1.4147754730        0.1966892727        1.2326240984
AX           -0.1059062509        1.1107257659       -0.7290249502
AX            1.3741560065        0.0486987165       -0.7781704414
AX           -0.5392613086       -1.3140746068       -0.1662283557
AX           -1.2096897656       -0.0474390165        0.9400817406
AX            0.4511744476        1.5037049101        0.1459786977
AX           -1.2150605215        1.0622965821        0.8630447085
AX            0.0209658785       -1.5825598118        0.7962968500
AX           -1.5953759880        0.0534791236       -1.0390100719
AX           -0.5535447718        0.7051491112       -1.7191173071
AX           -0.3635614274        0.5402951252        1.3551553630
AX           -0.9520573185       -0.8539870024       -1.0746829757
AX           -0.2617164213       -0.3683421630       -1.7855877176
AX            0.4283043846       -1.7830837139       -0.3194446387
AX           -1.2782564681        0.4625242407       -0.0430093733
AX            0.9863098508        1.0839776910       -0.7408828573
AX           -0.8037191907        1.6222887038       -0.0236550531
AX            1.3815993462       -0.3632637932        0.2772883918
AX           -1.0393206354       -1.1307791445        0.7743632027
AX            0.6405272515        1.0409799905        1.1760057081
AX            0.8560283102       -0.8098062858        1.1996103952
AX            0.8876344465       -0.5995267389       -1.5916497180
AX           -1.4553369106       -0.6145693452       -0.1236500516
AX            0.1216484828       -0.7300917004       -0.8277860613
AX            1.2233370834       -1.5039731138        0.4204506665
AX            1.2103901969        0.7122662262        0.2619359185
AX           -1.1910879009        1.0890720145       -0.9199533852
AX           -0.2328114961       -0.5757574931        1.2401048769
AX            0.4272608904        0.3578629333       -1.3536663720
AX           -0.2762771863        1.6135701559        0.9767556971
AX            0.4246031500        0.1847283086       -0.3005353868
AX           -0.5448173430        0.1299724470       -0.7892100276
AX           -0.2888153217        0.7406811814        0.2965611737
AX           -0.4777253851       -0.2959200508        0.1969532407
AX            0.4428410361        0.0886615424        0.7461550294
AX            0.4241105193       -0.8188534680        0.1863277711
    38
 Energy=    -169.673731473292
AX            0.4984720684        0.0565332229        1.8351975729
AX            1.1704146996       -1.0127644576       -0.5960793254
AX            1.4141002506        0.1964678655        1.2328287210
AX           -0.1057338146        1.1093997303       -0.7286180487
AX            1.3736923984        0.0483535492       -0.7793022550
AX           -0.5386052151       -1.3132210029       -0.1664229336
AX           -1.2101831742       -0.0469508913        0.9404005966
AX            0.4505939199        1.5050383685        0.1459128137
AX           -1.2147950436        1.0628279906        0.8630092999
AX            0.0210628456       -1.5812138028        0.7966819324
AX           -1.5948472506        0.0540626398       -1.0394689486
AX           -0.5543516877        0.7035706661       -1.7185213429
AX           -0.3640674907        0.5404164257        1.3558294454
AX           -0.9521937057       -0.8546439223       -1.0753178426
AX           -0.2620021625       -0.3693095179       -1.7863765010
AX            0.4285556951       -1.7831907589       -0.3199190253
AX           -1.2773799062        0.4629412675       -0.0428910063
AX            0.9860922276        1.0834840961       -0.7406334463
AX           -0.8022133604        1.6228022809       -0.0235184467
AX            1.3812627140       -0.3624170364        0.2765533984
AX           -1.0393469120       -1.1302236795        0.7741324639
AX            0.6393468075        1.0405990271        1.1764078313
AX            0.8554225941       -0.8103379576        1.1990974853
AX            0.8882360684       -0.6000480092       -1.5931640945
AX           -1.4543875458       -0.6138878000       -0.1241156723
AX            0.1223063252       -0.7304265759       -0.8290890109
AX            1.2241425281       -1.5033719377        0.4194704442
AX            1.2090226016        0.7130433240        0.2627975975
AX           -1.1906137880        1.0896239208       -0.9195112536
AX           -0.2336108703       -0.5755121325        1.2417381701
AX            0.4268242858        0.3565594785       -1.3535925605
AX           -0.2765161132        1.6143145197        0.9774920294
AX            0.4246946247        0.1843250522       -0.3002406968
AX           -0.5447074235        0.1284408023       -0.7886939279
AX           -0.2880864673        0.7411202970        0.2976103859
AX           -0.4773795982       -0.2955996143        0.1983794661
AX            0.4423649515        0.0879929304        0.7466905617
AX            0.4244139207       -0.8187983584        0.1852461226
    38
 Energy=    -169.672060511082
AX            0.4993731948        0.0573961176        1.8358665156
AX            1.1718308168       -1.0122761313       -0.5960604369
AX            1.4141033271        0.1966812940        1.2318890184
AX           -0.1082332810        1.1065328911       -0.7286352736
AX            1.3740839867        0.0497283056       -0.7802587718
AX           -0.5386642580       -1.3104130293       -0.1686068944
AX           -1.2129015862       -0.0452082278        0.9441057881
AX            0.4491826471        1.5081573201        0.1443302441
AX           -1.2130219605        1.0644500869        0.8622619990
AX            0.0167181005       -1.5801855085        0.7960449703
AX           -1.5890139847        0.0573126341       -1.0455924544
AX           -0.5658274482        0.6935680853       -1.7127366034
AX           -0.3637182175        0.5400512315        1.3555392710
AX           -0.9503755145       -0.8570520783       -1.0819621801
AX           -0.2578251657       -0.3731594493       -1.7892679930
AX            0.4284025221       -1.7829532016       -0.3209930326
AX           -1.2764636640        0.4623112987       -0.0416598089
AX            0.9834756165        1.0835828118       -0.7414830374
AX           -0.7968438866        1.6267492227       -0.0214546797
AX            1.3797339588       -0.3613581959        0.2758149421
AX           -1.0407041022       -1.1268637950        0.7719398334
AX            0.6394590197        1.0400799900        1.1752969809
AX            0.8546748195       -0.8112518887        1.1991683431
AX            0.8915643770       -0.5976746435       -1.5936712064
AX           -1.4501320130       -0.6128197273       -0.1313345643
AX            0.1249570162       -0.7330477515       -0.8312869122
AX            1.2242372647       -1.5033107251        0.4190062706
AX            1.2065563032        0.7141757314        0.2622455585
AX           -1.1929963828        1.0939621361       -0.9139546839
AX           -0.2346912719       -0.5761423370        1.2470019724
AX            0.4236459908        0.3560805132       -1.3532070400
AX           -0.2747725607        1.6149046762        0.9793400199
AX            0.4254889485        0.1818093278       -0.2997284809
AX           -0.5434772041        0.1229335595       -0.7833520139
AX           -0.2862032581        0.7418251153        0.2975147434
AX           -0.4771519992       -0.2952319390        0.2055938710
AX            0.4415067287        0.0863937473        0.7476797341
AX            0.4240231180       -0.8197374651        0.1846059941
    38
 Energy=    -169.665494749590
AX            0.4984928520        0.0628959387        1.8361486112
AX            1.1772313449       -1.0153662360       -0.5974107960
AX            1.4137920212        0.1923006985        1.2325813112
AX           -0.1094115186        1.1070693019       -0.7320471955
AX            1.3707166645        0.0475540505       -0.7749626288
AX           -0.5343005939       -1.3078022091       -0.1729217144
AX           -1.2145093395       -0.0420524064        0.9520514950
AX            0.4489146008        1.4916451223        0.1459991150
AX           -1.2141880155        1.0702178809        0.8536611947
AX            0.0210451148       -1.5695165741        0.7936899321
AX           -1.5853929129        0.0571835609       -1.0552209205
AX           -0.5815534639        0.6843685604       -1.7043384226
AX           -0.3641426981        0.5459723836        1.3542919846
AX           -0.9450359656       -0.8576586415       -1.0888942565
AX           -0.2558817764       -0.3749191144       -1.7960297876
AX            0.4297530205       -1.7797803052       -0.3254289616
AX           -1.2922650318        0.4494034996       -0.0378816403
AX            0.9833482137        1.0814552026       -0.7431099196
AX           -0.7809844941        1.6436991762       -0.0208333789
AX            1.3864062505       -0.3672719627        0.2793559714
AX           -1.0374691220       -1.1248917419        0.7707140132
AX            0.6485254139        1.0396519424        1.1788633835
AX            0.8491578419       -0.8081905285        1.1978196379