    38
Energy=    -173.134317008811    
AX        0.3475114508         1.022609892         1.616290103    
AX        0.9668109031       -0.8342302584       -0.5889277374    
AX         1.392777437       -0.5840629154         1.283553635    
AX       -0.2151301731         1.652731133        -1.072691761    
AX         1.419249829        0.1599325878       -0.8166748521    
AX       -0.6033295704        -1.714385927       -0.3473914274    
AX        -1.363441338       -0.7753232324E-01    0.8568140863    
AX        0.3658179514         1.619068961       -0.1158392214    
AX       -0.8820721662        0.9306176235        0.6105313427    
AX       -0.1149955753E-01    -1.759226565        0.6301873620    
AX        -1.333362174        0.7964427512E-01    -1.306884806    
AX       -0.3504475066        0.6077292394        -1.449113013    
AX       -0.3776126303        0.2288538773         1.349771595    
AX        -1.104059622        -1.017809569        -1.081166860    
AX       -0.4816670357       -0.4423028292        -1.812417069    
AX        0.5108496685        -1.823013916       -0.3579718364    
AX        -1.328945347        0.2998214279       -0.2223446566    
AX        0.6030858426        0.9080424142       -0.9473133672    
AX       -0.7501564984         1.772233041       -0.9588146347E-01
AX         1.409088889       -0.2132052130        0.2338122568    
AX       -0.5136773333       -0.8343148010        0.9723580188    
AX         1.174945558        0.4934746594         1.069864964    
AX        0.4338877125        -1.134566219         1.458197967    
AX        0.4693125352       -0.1421496166        -1.317967757    
AX        -1.101067257       -0.7897911536        0.1618964246E-02
AX        0.1405705171E-01    -1.138129377        -1.090023547    
AX        0.9557294587        -1.209321189        0.4649734093    
AX         1.184347096        0.8678658614        0.1566725809E-01
AX        -1.198752023         1.136633094       -0.9342906903    
AX        0.4566600934       -0.2846337293        0.7818827399    
AX        0.4748484695        0.7911669085E-01   -0.2489319738    
AX       -0.1614626290         1.730653654        0.8704346571    
AX        0.2406877494        0.7702540909        0.5669594909    
AX       -0.4602470218       -0.2155690629       -0.7324490945    
AX       -0.3297017233        0.8092906384       -0.3704605056    
AX       -0.4486821017        0.1440837876E-02    0.3075495006    
AX        0.5704361023       -0.6487070872E-01     1.839329215    
AX        0.2520990974E-01   -0.8908986255       -0.2105492620E-01
    38
Energy=    -173.134317007875    
AX        0.3475142089         1.022610363         1.616289027    
AX        0.9668113626       -0.8342301082       -0.5889277727    
AX         1.392778065       -0.5840630060         1.283552731    
AX       -0.2151295786         1.652730319        -1.072691270    
AX         1.419250380        0.1599334113       -0.8166741142    
AX       -0.6033302108        -1.714385153       -0.3473914292    
AX        -1.363441036       -0.7753254991E-01    0.8568139486    
AX        0.3658170347         1.619068963       -0.1158384153    
AX       -0.8820730593        0.9306169933        0.6105315248    
AX       -0.1150173130E-01    -1.759226319        0.6301874455    
AX        -1.333362476        0.7964386140E-01    -1.306884850    
AX       -0.3504469940        0.6077286404        -1.449112553    
AX       -0.3776115613        0.2288545816         1.349771700    
AX        -1.104060045        -1.017810476        -1.081168133    
AX       -0.4816672779       -0.4423027221        -1.812416953    
AX        0.5108490434        -1.823013762       -0.3579712664    
AX        -1.328944930        0.2998222789       -0.2223448240    
AX        0.6030865824        0.9080428453       -0.9473121851    
AX       -0.7501581919         1.772231936       -0.9588186062E-01
AX         1.409089307       -0.2132050230        0.2338121652    
AX       -0.5136778535       -0.8343144244        0.9723580976    
AX         1.174946185        0.4934746500         1.069864808    
AX        0.4338877774        -1.134566111         1.458196999    
AX        0.4693124908       -0.1421494234        -1.317966854    
AX        -1.101067718       -0.7897903626        0.1617729177E-02
AX        0.1405727681E-01    -1.138129355        -1.090023305    
AX        0.9557290246        -1.209321154        0.4649733278    
AX         1.184347145        0.8678663383        0.1566836141E-01
AX        -1.198751753         1.136632603       -0.9342918985    
AX        0.4566604538       -0.2846334254        0.7818827890    
AX        0.4748486322        0.7911664405E-01   -0.2489317022    
AX       -0.1614641344         1.730653014        0.8704346203    
AX        0.2406876849        0.7702539379        0.5669594080    
AX       -0.4602475521       -0.2155695792       -0.7324490160    
AX       -0.3297018756        0.8092902635       -0.3704602655    
AX       -0.4486819538        0.1440621569E-02    0.3075496496    
AX        0.5704373084       -0.6487089153E-01     1.839329218    
AX        0.2520997239E-01   -0.8908984195       -0.2105488027E-01
    38
Energy=    -173.134262054772    
AX        0.3476914268         1.022589710         1.616169673    
AX        0.9668985335       -0.8341140497       -0.5887043711    
AX         1.392675056       -0.5843650331         1.283566548    
AX       -0.2156723791         1.652654940        -1.072810266    
AX         1.419284475        0.1601028430       -0.8165834588    
AX       -0.6031764156        -1.714471806       -0.3478883505    
AX        -1.363439710       -0.7740117393E-01    0.8567328332    
AX        0.3658327835         1.619075992       -0.1161950951    
AX       -0.8819168690        0.9306725190        0.6105375522    
AX       -0.1228025895E-01    -1.759067749        0.6301079193    
AX        -1.333353674        0.7933922984E-01    -1.306680923    
AX       -0.3506716546        0.6077766204        -1.449035971    
AX       -0.3774349864        0.2288911812         1.349739847    
AX        -1.103777585        -1.017809124        -1.081144954    
AX       -0.4814472554       -0.4422381658        -1.812346157    
AX        0.5107912313        -1.823045617       -0.3578363243    
AX        -1.329015938        0.2994150379       -0.2221756002    
AX        0.6029825598        0.9081791727       -0.9474033878    
AX       -0.7501531043         1.772333649       -0.9581519023E-01
AX         1.409156689       -0.2132453803        0.2338761923    
AX       -0.5140101010       -0.8340890644        0.9724442223    
AX         1.175092487        0.4932574127         1.069815528    
AX        0.4334207062        -1.134474630         1.458089927    
AX        0.4694595891       -0.1419124730        -1.317919955    
AX        -1.100796589       -0.7899798057        0.1659310670E-02
AX        0.1445251259E-01    -1.137975887        -1.090075033    
AX        0.9555188880        -1.209494451        0.4651137107    
AX         1.184421059        0.8679635289        0.1565941775E-01
AX        -1.199137009         1.136316557       -0.9338296465    
AX        0.4566950949       -0.2846104962        0.7818280979    
AX        0.4749511296        0.7921837099E-01   -0.2489310171    
AX       -0.1611050832         1.730757923        0.8702220555    
AX        0.2408004837        0.7703091117        0.5668782572    
AX       -0.4600687004       -0.2155263147       -0.7324090631    
AX       -0.3297348100        0.8092981535       -0.3704400731    
AX       -0.4485939310        0.1482951365E-02    0.3075592294    
AX        0.5705009386       -0.6496422377E-01     1.839301472    
AX        0.2516041252E-01   -0.8908494612       -0.2107695584E-01
    38
Energy=    -173.132634401852    
AX        0.3478632434         1.023160626         1.616234784    
AX        0.9674144158       -0.8340808426       -0.5889393913    
AX         1.391298127       -0.5851192342         1.285024302    
AX       -0.2167545244         1.651604208        -1.073186032    
AX         1.419528102        0.1601481897       -0.8161188647    
AX       -0.6021666921        -1.713642972       -0.3498378424    
AX        -1.362956108       -0.7597130125E-01    0.8575575048    
AX        0.3655819563         1.618708830       -0.1171844387    
AX       -0.8795869022        0.9316264153        0.6122782543    
AX       -0.1296353431E-01    -1.759106795        0.6286195896    
AX        -1.334919257        0.7700344673E-01    -1.305210095    
AX       -0.3522140903        0.6070843546        -1.448874701    
AX       -0.3779586754        0.2298537743         1.350939901    
AX        -1.102374009        -1.019078634        -1.083489174    
AX       -0.4815428797       -0.4412756664        -1.812989042    
AX        0.5114487803        -1.822251436       -0.3589134351    
AX        -1.328964766        0.3002317652       -0.2210122739    
AX        0.6023649114        0.9074546702       -0.9473719142    
AX       -0.7507696694         1.771299962       -0.9591974354E-01
AX         1.408417955       -0.2134232650        0.2349582760    
AX       -0.5140128364       -0.8339578250        0.9723095032    
AX         1.176024836        0.4926443097         1.069924037    
AX        0.4325727949        -1.135508651         1.458759074    
AX        0.4692605912       -0.1418189741        -1.317812238    
AX        -1.100489309       -0.7892870576        0.3007223386E-03
AX        0.1570172244E-01    -1.137068171        -1.091380523    
AX        0.9547725309        -1.209499192        0.4652684833    
AX         1.184761446        0.8680813017        0.1532538493E-01
AX        -1.200216288         1.135181329       -0.9344877084    
AX        0.4560608506       -0.2846351875        0.7830011164    
AX        0.4749234121        0.7903761492E-01   -0.2485966777    
AX       -0.1586142760         1.732256058        0.8696059558    
AX        0.2419750978        0.7705884854        0.5671979524    
AX       -0.4604053921       -0.2160895682       -0.7323366972    
AX       -0.3299231803        0.8087328158       -0.3703028224    
AX       -0.4483157177        0.1696715986E-02    0.3082725556    
AX        0.5698458987       -0.6425821209E-01     1.840137969    
AX        0.2533143713E-01   -0.8903218888       -0.2175175103E-01
    38
Energy=    -172.240236905498    
AX        0.1412962891        0.9382305747         1.569442682    
AX        0.9943566985       -0.8367432987       -0.5875400405    
AX         1.392597631       -0.5581781704         1.288425888    
AX       -0.2239090739         1.645621013        -1.082497111    
AX         1.437185110        0.1563806304       -0.8373614997    
AX       -0.6365120133        -1.630305682       -0.2603792479    
AX        -1.373947367       -0.7804347462E-01    0.8619524991    
AX        0.3730324700         1.627297760       -0.1604927866    
AX       -0.7919599526        0.9008424104        0.7842907830    
AX        0.4040823046E-01    -1.779558207        0.6396439002    
AX        -1.340205777        0.5625519019E-01    -1.189453288    
AX       -0.3542550275        0.5889466966        -1.463754540    
AX       -0.3919769948       -0.7095950174E-02     1.391831426    
AX        -1.083646127        -1.047688519        -1.103156065    
AX       -0.4866131634       -0.4501040877        -1.806269828    
AX        0.5159038753        -1.817919774       -0.3487496677    
AX        -1.315031965        0.4451305444       -0.1314380012    
AX        0.6133193477        0.9017735325       -0.9817126796    
AX       -0.7782092768         1.671439391       -0.4449346549E-01
AX         1.434973218       -0.1909285991        0.2308730348    
AX       -0.6258228886       -0.9347404137        0.8353039912    
AX         1.174666068        0.5450815374         1.068866330    
AX        0.3237354733        -1.048850111         1.432752108    
AX        0.4837265091       -0.1573191883        -1.332803802    
AX        -1.193156602       -0.6699829949       -0.8260461883E-01
AX        0.2873370537E-01    -1.152481700        -1.079309533    
AX        0.9776379043        -1.190268823        0.4832165140    
AX         1.208546525        0.8810335023       -0.1744688408E-01
AX        -1.192761241         1.141370480       -0.9651320455    
AX        0.4860110431       -0.2392743633        0.7680578506    
AX        0.5012174427        0.8248242200E-01   -0.2671182499    
AX       -0.1003574371         1.769110053        0.8414231901    
AX        0.2648194395        0.7904905064        0.5184564438    
AX       -0.4271234422       -0.2343961446       -0.7290740238    
AX       -0.3088376880        0.7881659566       -0.3992125737    
AX       -0.4421791710        0.2165709489E-02    0.3139584210    
AX        0.6067181433       -0.3239208755E-01     1.849255768    
AX        0.6762008567E-01   -0.8755463205       -0.7750877758E-02
    38
Energy=    -171.326923699338    
AX        0.2516936807        0.9261927464         1.579836342    
AX        0.9591199615       -0.8364983006       -0.5786990441    
AX         1.396477648       -0.6041564204         1.282680221    
AX       -0.1738640607         1.703430998       -0.9809578441    
AX         1.441290576        0.1267886804       -0.8287546003    
AX       -0.6260202739        -1.669073581       -0.3265879412    
AX        -1.359296558       -0.2480894685E-01    0.8584837851    
AX        0.6263296619         1.669479693       -0.1922397165    
AX       -0.7107210943        0.9283047305        0.9118793599    
AX       -0.1473919814E-01    -1.767263200        0.6267956250    
AX        -1.312203913        0.1098009415        -1.317588396    
AX       -0.3153499749        0.6410367092        -1.434374633    
AX       -0.3741977870        0.3446576306E-01     1.451517879    
AX        -1.100952068       -0.9741912455        -1.085165121    
AX       -0.4644977160       -0.4083705425        -1.806598293    
AX        0.4859546505        -1.809279946       -0.3571515747    
AX        -1.311070800        0.3236125078       -0.2357942606    
AX        0.6321895188        0.8983396042       -0.9477584702    
AX        -1.302406236         1.355572514        0.8770369635E-01
AX         1.423278674       -0.2381369066        0.2375469675    
AX       -0.5723677254       -0.8754077136        0.9162236359    
AX         1.203492583        0.5002609382         1.078587839    
AX        0.3741036392        -1.089821677         1.448383978    
AX        0.4824969656       -0.1399028208        -1.312473544    
AX        -1.107982234       -0.7269738220       -0.1702223465E-01
AX        0.1358546826E-02    -1.112861152        -1.074504845    
AX        0.9329867574        -1.204764394        0.4770607675    
AX         1.289207237        0.8256349331        0.4264985680E-02
AX        -1.170735809         1.161093475       -0.9853059463    
AX        0.4723358203       -0.2427699656        0.7926004862    
AX        0.4928533844        0.9632559873E-01   -0.2421659439    
AX       -0.3195499569         1.761510351        0.3032188398    
AX        0.3203651869        0.8491005919        0.5135038155    
AX       -0.4450068749       -0.1729332053       -0.7164821033    
AX       -0.3305880444        0.8604837200       -0.3434557401    
AX       -0.4312524461        0.5768018141E-01    0.3447449123    
AX        0.6370440382       -0.7398287387E-01     1.872778130    
AX        0.2022424158E-01   -0.8579179644       -0.4731013721E-02
    38
Energy=    -171.327114253459    
AX        0.2527980553        0.9264800099         1.577752260    
AX        0.9591276449       -0.8369153437       -0.5790403991    
AX         1.396394456       -0.6041681855         1.282843688    
AX       -0.1747672629         1.706220187       -0.9710999910    
AX         1.440748866        0.1268864950       -0.8290763441    
AX       -0.6258329560        -1.669761094       -0.3272710209    
AX        -1.359443099       -0.2368043401E-01    0.8586252121    
AX        0.6331596636         1.673235908       -0.1893261422    
AX       -0.7087815670        0.9301812989        0.9088007517    
AX       -0.1506023711E-01    -1.767511984        0.6268407819    
AX        -1.311926793        0.1101097505        -1.317673120    
AX       -0.3153151996        0.6418661435        -1.433751042    
AX       -0.3748603517        0.3609792552E-01     1.451226059    
AX        -1.101151781       -0.9743909434        -1.085118450    
AX       -0.4644135660       -0.4080336249        -1.806506885    
AX        0.4860340668        -1.809670413       -0.3571574317    
AX        -1.311946904        0.3220301376       -0.2357782593    
AX        0.6307067688        0.8998609562       -0.9439257925    
AX        -1.305809738         1.354172117        0.8775450607E-01
AX         1.423408199       -0.2389922111        0.2374601890    
AX       -0.5718739501       -0.8752269894        0.9172983058    
AX         1.203287648        0.5000490927         1.078036060    
AX        0.3747633578        -1.090488396         1.448565056    
AX        0.4821207034       -0.1388480775        -1.312083217    
AX        -1.107840934       -0.7281733885       -0.1626801152E-01
AX        0.1599002686E-02    -1.113035519        -1.074819883    
AX        0.9329634121        -1.205135579        0.4770949594    
AX         1.290572134        0.8246613620        0.4360243346E-02
AX        -1.171183495         1.161463797       -0.9849362699    
AX        0.4722109180       -0.2430422893        0.7928947093    
AX        0.4928654284        0.9517206594E-01   -0.2417572852    
AX       -0.3208168396         1.761489401        0.2920499974    
AX        0.3209563053        0.8501316883        0.5110613577    
AX       -0.4452455611       -0.1740948873       -0.7164329279    
AX       -0.3326912221        0.8571253957       -0.3438150056    
AX       -0.4313434877        0.5659552290E-01    0.3451239843    
AX        0.6364335445       -0.7395156302E-01     1.872635426    
AX        0.2015476956E-01   -0.8587083324       -0.4586069094E-02
    38
Energy=    -171.327155508293    
AX        0.2531879837        0.9266416160         1.576575341    
AX        0.9591426499       -0.8370725977       -0.5791725127    
AX         1.396313890       -0.6040531303         1.282839392    
AX       -0.1747694298         1.707120706       -0.9680849471    
AX         1.440398015        0.1270874367       -0.8291793447    
AX       -0.6257352031        -1.670092266       -0.3275771655    
AX        -1.359516613       -0.2341519895E-01    0.8586990929    
AX        0.6352875430         1.674928640       -0.1880071699    
AX       -0.7081750986        0.9305802736        0.9078616379    
AX       -0.1517428739E-01    -1.767639094        0.6268868430    
AX        -1.311775500        0.1101753178        -1.317688548    
AX       -0.3152133703        0.6418633026        -1.433616115    
AX       -0.3751491365        0.3661586721E-01     1.451176773    
AX        -1.101324911       -0.9746559325        -1.085107499    
AX       -0.4644436957       -0.4082991650        -1.806487031    
AX        0.4861182083        -1.809872929       -0.3571120518    
AX        -1.312409221        0.3214984368       -0.2357549777    
AX        0.6299576362        0.9005349113       -0.9421803229    
AX        -1.305905468         1.353919578        0.8735771623E-01
AX         1.423310647       -0.2390982644        0.2373955939    
AX       -0.5716574880       -0.8751652699        0.9176948193    
AX         1.203110299        0.5000525558         1.077604658    
AX        0.3750810936        -1.090728423         1.448634098    
AX        0.4819162515       -0.1384959561        -1.311924540    
AX        -1.107869892       -0.7286995106       -0.1597100049E-01
AX        0.1711476189E-02    -1.113228363        -1.074942005    
AX        0.9329845843        -1.205225098        0.4770987340    
AX         1.290904794        0.8246015578        0.4233036618E-02
AX        -1.171127030         1.161673788       -0.9852521432    
AX        0.4720793240       -0.2431581834        0.7930103587    
AX        0.4927538370        0.9466451146E-01   -0.2416856971    
AX       -0.3207262893         1.761676442        0.2899189311    
AX        0.3211067275        0.8503742279        0.5099411641    
AX       -0.4454490017       -0.1746282849       -0.7163997788    
AX       -0.3336414503        0.8562550632       -0.3438778331    
AX       -0.4315742751        0.5616805916E-01    0.3451500805    
AX        0.6361839615       -0.7380911142E-01     1.872492137    
AX        0.2008843998E-01   -0.8590955124       -0.4549723886E-02
    38
Energy=    -171.327361397743    
AX        0.2538342008        0.9268993800         1.575098777    
AX        0.9591394805       -0.8373981552       -0.5794623893    
AX         1.396284582       -0.6040451406         1.282984242    
AX       -0.1757013819         1.709393911       -0.9601023135    
AX         1.440000583        0.1271006941       -0.8294904509    
AX       -0.6256023203        -1.670631193       -0.3279907740    
AX        -1.359657202       -0.2266822109E-01    0.8588008420    
AX        0.6408546892         1.677786617       -0.1858573136    
AX       -0.7068199934        0.9320259317        0.9052797795    
AX       -0.1532294845E-01    -1.767856490        0.6269355472    
AX        -1.311678071        0.1102955914        -1.317698332    
AX       -0.3152205052        0.6426160076        -1.433059777    
AX       -0.3756806771        0.3786380810E-01     1.450878134    
AX        -1.101412375       -0.9748107033        -1.085039732    
AX       -0.4643914056       -0.4078482904        -1.806379053    
AX        0.4861748482        -1.810155613       -0.3571455854    
AX        -1.313068889        0.3203719223       -0.2356792491    
AX        0.6288343077        0.9016973406       -0.9392942095    
AX        -1.308598381         1.353067963        0.8719985156E-01
AX         1.423476205       -0.2398434038        0.2372935197    
AX       -0.5712738120       -0.8751071222        0.9184960391    
AX         1.202974023        0.4998907312         1.077265915    
AX        0.3755821067        -1.091220253         1.448795715    
AX        0.4816227891       -0.1376582192        -1.311633723    
AX        -1.107753157       -0.7295791708       -0.1541972095E-01
AX        0.1867806215E-02    -1.113300445        -1.075157461    
AX        0.9329776068        -1.205514200        0.4771190049    
AX         1.292038137        0.8237029040        0.4355091819E-02
AX        -1.171643809         1.161828033       -0.9850273273    
AX        0.4719964794       -0.2433670522        0.7931947762    
AX        0.4927783732        0.9378522455E-01   -0.2413413413    
AX       -0.3215304704         1.761526867        0.2809874386    
AX        0.3215904918        0.8511724854        0.5081379373    
AX       -0.4456247723       -0.1754595644       -0.7163538486    
AX       -0.3352742381        0.8535739779       -0.3441337304    
AX       -0.4315299874        0.5528509199E-01    0.3454886267    
AX        0.6356962972       -0.7374032767E-01     1.872384138    
AX        0.2006139010E-01   -0.8596809170       -0.4429041522E-02
    38
Energy=    -171.327361404993    
AX        0.2538427924        0.9268967889         1.575100319    
AX        0.9591402660       -0.8373970985       -0.5794612570    
AX         1.396284318       -0.6040486412         1.282982832    
AX       -0.1757055930         1.709392277       -0.9601055721    
AX         1.440000935        0.1271032186       -0.8294889394    
AX       -0.6256012237        -1.670631777       -0.3279922474    
AX        -1.359658496       -0.2265981529E-01    0.8587997604    
AX        0.6408535029         1.677787190       -0.1858602889    
AX       -0.7068145877        0.9320318657        0.9052835030    
AX       -0.1532728806E-01    -1.767854961        0.6269343143    
AX        -1.311679567        0.1102901751        -1.317700357    
AX       -0.3152229422        0.6426162315        -1.433058115    
AX       -0.3756817811        0.3786794817E-01     1.450879813    
AX        -1.101407798       -0.9748130198        -1.085040895    
AX       -0.4643883170       -0.4078471442        -1.806379216    
AX        0.4861753311        -1.810154942       -0.3571451127    
AX        -1.313069660        0.3203691314       -0.2356824340    
AX        0.6288322040        0.9016964400       -0.9392943447    
AX        -1.308597115         1.353063614        0.8720024822E-01
AX         1.423474521       -0.2398426815        0.2372943256    
AX       -0.5712736736       -0.8751031018        0.9184979706    
AX         1.202974421        0.4998864986         1.077266287    
AX        0.3755833158        -1.091226243         1.448794497    
AX        0.4816241580       -0.1376572330        -1.311632694    
AX        -1.107751574       -0.7295790620       -0.1541973425E-01
AX        0.1870928470E-02    -1.113299218        -1.075157059    
AX        0.9329763055        -1.205515393        0.4771177735    
AX         1.292039172        0.8237042619        0.4356079158E-02
AX        -1.171649048         1.161823913       -0.9850288935    
AX        0.4719937389       -0.2433692468        0.7931958713    
AX        0.4927779354        0.9378673437E-01   -0.2413400703    
AX       -0.3215311267         1.761530567        0.2809850039    
AX        0.3215914515        0.8511738118        0.5081381469    
AX       -0.4456244262       -0.1754583652       -0.7163534766    
AX       -0.3352759146        0.8535760228       -0.3441318051    
AX       -0.4315308586        0.5528787468E-01    0.3454898350    
AX        0.6356951682       -0.7374689260E-01     1.872384586    
AX        0.2006052513E-01   -0.8596797302       -0.4428653216E-02
