    38
Energy=    -172.200559790511    
AX       -0.5876910902        0.9842032983         1.773265606    
AX        0.9198432995       -0.9645332467       -0.7068374860    
AX         1.266708901        0.1882822553         1.067044257    
AX       -0.7975060691E-01     1.636064936       -0.9085411847    
AX         1.441970602        0.8610461694E-02   -0.8426068125    
AX       -0.7106969863        -1.744206096       -0.5151673098    
AX        -1.299596030       -0.1789991546        0.8935425972    
AX        0.5183632027         1.465930970        0.1991624690E-01
AX       -0.7605395517        0.8057489351        0.7009589747    
AX       -0.1115348095        -1.940690788        0.4283221577    
AX        -1.320813768        0.1861967204        -1.255672010    
AX       -0.3046734099        0.6495343097        -1.376418572    
AX       -0.2861700857        0.3593456383E-02     1.372410693    
AX        -1.174746729       -0.9372089824        -1.142922457    
AX       -0.5249988834       -0.3431963401        -1.836532296    
AX        0.3917459261        -1.935485543       -0.5717897691    
AX        -1.270842958        0.2837173280       -0.1549174285    
AX        0.6816325872        0.8234965741       -0.8776622497    
AX       -0.5790022625         1.704092448        0.8783937109E-01
AX         1.425547808       -0.4649491865        0.1713008030    
AX       -0.5063637826        -1.018144185        0.9037129425    
AX         1.113121110         1.291544186        0.9465923040    
AX        0.6547910666       -0.3561532210         1.822713706    
AX        0.4585803647       -0.1668818376        -1.341219244    
AX        -1.120507265       -0.8319755564       -0.3900877633E-01
AX       -0.6731497454E-01    -1.142178230        -1.208083191    
AX        0.9000845209        -1.448604532        0.3009382508    
AX         1.279253401        0.6494302687        0.5318635987E-01
AX        -1.096777240         1.181593200       -0.7802657526    
AX        0.4917896386       -0.5355277503        0.7536204092    
AX        0.5091749414       -0.5922108598E-01   -0.2520553072    
AX        0.2194002434E-01     1.530011249         1.018685414    
AX        0.3403746962        0.5654561599        0.6299963291    
AX       -0.4584555227       -0.2302928127       -0.7388817366    
AX       -0.2395682850        0.7374366449       -0.2842359719    
AX       -0.3998984110       -0.1265197358        0.3190019946    
AX        0.4948203178        0.7392798799         1.689647739    
AX       -0.9799756599E-02    -1.009454998       -0.1198786009    
    38
Energy=    -172.200559789860    
AX       -0.5876901097        0.9842029563         1.773266388    
AX        0.9198434418       -0.9645331343       -0.7068365219    
AX         1.266709054        0.1882814071         1.067043885    
AX       -0.7975156713E-01     1.636065564       -0.9085403762    
AX         1.441970293        0.8610576815E-02   -0.8426075956    
AX       -0.7106965986        -1.744206382       -0.5151667289    
AX        -1.299596314       -0.1789985892        0.8935428815    
AX        0.5183633674         1.465931116        0.1991607605E-01
AX       -0.7605397819        0.8057488483        0.7009594256    
AX       -0.1115352670        -1.940690028        0.4283232882    
AX        -1.320813194        0.1861966930        -1.255673307    
AX       -0.3046737601        0.6495347786        -1.376418158    
AX       -0.2861699111        0.3593774222E-02     1.372410061    
AX        -1.174745607       -0.9372093286        -1.142923228    
AX       -0.5249969720       -0.3431965841        -1.836532635    
AX        0.3917467113        -1.935485770       -0.5717880853    
AX        -1.270843711        0.2837171256       -0.1549179963    
AX        0.6816320618        0.8234971401       -0.8776626518    
AX       -0.5790026227         1.704092587        0.8784030588E-01
AX         1.425547247       -0.4649484516        0.1713004787    
AX       -0.5063643063        -1.018143384        0.9037132646    
AX         1.113121909         1.291543009        0.9465916800    
AX        0.6547904673       -0.3561547081         1.822713003    
AX        0.4585805726       -0.1668817170        -1.341219130    
AX        -1.120507818       -0.8319756187       -0.3900907506E-01
AX       -0.6731405182E-01    -1.142178636        -1.208082497    
AX        0.9000842456        -1.448603982        0.3009394912    
AX         1.279253689        0.6494304197        0.5318529317E-01
AX        -1.096778131         1.181593398       -0.7802650595    
AX        0.4917889814       -0.5355273661        0.7536197997    
AX        0.5091744490       -0.5922063505E-01   -0.2520558601    
AX        0.2194065841E-01     1.530010201         1.018685335    
AX        0.3403750219        0.5654558224        0.6299956373    
AX       -0.4584556297       -0.2302926749       -0.7388820152    
AX       -0.2395687768        0.7374370966       -0.2842357665    
AX       -0.3998990939       -0.1265194700        0.3190015019    
AX        0.4948210751        0.7392787459         1.689647241    
AX       -0.9800020717E-02    -1.009454801       -0.1198783481    
    38
Energy=    -172.200556767977    
AX       -0.5877631020        0.9842558065         1.773240788    
AX        0.9198396733       -0.9644791206       -0.7069121889    
AX         1.266683646        0.1881955127         1.067086935    
AX       -0.7968849921E-01     1.636060547       -0.9085430989    
AX         1.441950496        0.8648152412E-02   -0.8426644794    
AX       -0.7106536258        -1.744228054       -0.5149786322    
AX        -1.299656950       -0.1789001723        0.8935279850    
AX        0.5184126292         1.465901848        0.1993915782E-01
AX       -0.7605433024        0.8057864326        0.7009390737    
AX       -0.1112572867        -1.940636474        0.4284336321    
AX        -1.320838215        0.1861700726        -1.255667299    
AX       -0.3046780759        0.6495085455        -1.376417271    
AX       -0.2862403234        0.3600708428E-02     1.372404294    
AX        -1.174765287       -0.9372932102        -1.142863144    
AX       -0.5250739040       -0.3432523147        -1.836518434    
AX        0.3917980318        -1.935448352       -0.5718018072    
AX        -1.270851483        0.2837726346       -0.1549394811    
AX        0.6816417384        0.8235067721       -0.8776641138    
AX       -0.5789059826         1.704125377        0.8784279252E-01
AX         1.425550992       -0.4648781521        0.1712554634    
AX       -0.5064444465        -1.018141838        0.9036753409    
AX         1.113134313         1.291450942        0.9466413506    
AX        0.6546720690       -0.3562955024         1.822692573    
AX        0.4585344789       -0.1668673251        -1.341255262    
AX        -1.120550241       -0.8319346988       -0.3899943607E-01
AX       -0.6735177934E-01    -1.142188205        -1.208055044    
AX        0.9002266140        -1.448511672        0.3008320068    
AX         1.279268140        0.6494086440        0.5319961372E-01
AX        -1.096723481         1.181624607       -0.7803135005    
AX        0.4917535708       -0.5355537547        0.7535770291    
AX        0.5091471414       -0.5921015005E-01   -0.2520885181    
AX        0.2198124194E-01     1.529975163         1.018706200    
AX        0.3403744927        0.5654280828        0.6300005781    
AX       -0.4584809692       -0.2302882780       -0.7388777087    
AX       -0.2395555161        0.7374352408       -0.2842447288    
AX       -0.3999314636       -0.1265041093        0.3190017083    
AX        0.4947533808        0.7391852404         1.689668296    
AX       -0.9768714269E-02    -1.009428947       -0.1198606681    
    38
Energy=    -172.200554873707    
AX       -0.5877856627        0.9842758971         1.773235708    
AX        0.9198355998       -0.9644582754       -0.7069186821    
AX         1.266663172        0.1881964046         1.067090734    
AX       -0.7967752609E-01     1.636056844       -0.9085466597    
AX         1.441931953        0.8658005976E-02   -0.8426847046    
AX       -0.7106401846        -1.744224331       -0.5149558928    
AX        -1.299659175       -0.1789022603        0.8935344190    
AX        0.5184245056         1.465898340        0.1994140604E-01
AX       -0.7605414524        0.8057788392        0.7009217539    
AX       -0.1112273210        -1.940652741        0.4284391711    
AX        -1.320833152        0.1861720569        -1.255660998    
AX       -0.3046745663        0.6495080015        -1.376441043    
AX       -0.2862490072        0.3603663877E-02     1.372402644    
AX        -1.174763211       -0.9372792002        -1.142845157    
AX       -0.5250858392       -0.3432573228        -1.836522419    
AX        0.3918237068        -1.935441578       -0.5718148433    
AX        -1.270859235        0.2837763004       -0.1549277898    
AX        0.6816453562        0.8235074624       -0.8776591257    
AX       -0.5788760704         1.704104482        0.8784552276E-01
AX         1.425538118       -0.4648642742        0.1712561302    
AX       -0.5064358718        -1.018152097        0.9036723943    
AX         1.113150696         1.291429136        0.9466303307    
AX        0.6546395014       -0.3563058135         1.822690280    
AX        0.4585295261       -0.1668625352        -1.341269522    
AX        -1.120560279       -0.8319343077       -0.3900054960E-01
AX       -0.6736166549E-01    -1.142179651        -1.208038361    
AX        0.9002432615        -1.448510427        0.3008282248    
AX         1.279265070        0.6493957028        0.5320712131E-01
AX        -1.096707833         1.181620795       -0.7803157135    
AX        0.4917420972       -0.5355307182        0.7535948035    
AX        0.5091488523       -0.5922668145E-01   -0.2520842716    
AX        0.2200145629E-01     1.529974565         1.018715877    
AX        0.3403786575        0.5654135578        0.6299962486    
AX       -0.4584879523       -0.2303214831       -0.7388838693    
AX       -0.2395752695        0.7374556889       -0.2842140489    
AX       -0.3999392784       -0.1264950062        0.3189898938    
AX        0.4947520839        0.7391897196         1.689670148    
AX       -0.9773059760E-02    -1.009416761       -0.1198791586    
    38
Energy=    -172.185419464571    
AX       -0.5907818397        0.9747004584         1.776372280    
AX        0.9181024359       -0.9646908037       -0.7081104286    
AX         1.270141994        0.1885804022         1.060796501    
AX       -0.7879525454E-01     1.636710769       -0.9065224095    
AX         1.442270552        0.9227222827E-02   -0.8436743183    
AX       -0.7145507066        -1.741628774       -0.5087424049    
AX        -1.297596769       -0.1727341340        0.8999317632    
AX        0.5141245658         1.464971344        0.2382274651E-01
AX       -0.7580533763        0.8048652762        0.7036016426    
AX       -0.1104763263        -1.936636278        0.4329788518    
AX        -1.317774219        0.1827149062        -1.259816241    
AX       -0.3006272300        0.6478069324        -1.379043575    
AX       -0.2835588116       -0.2550537756E-02     1.375626045    
AX        -1.172538257       -0.9385472802        -1.144178402    
AX       -0.5203093782       -0.3462415051        -1.838638918    
AX        0.3860419657        -1.936503158       -0.5699212495    
AX        -1.268937872        0.2882674026       -0.1563543597    
AX        0.6825389786        0.8251356905       -0.8784847450    
AX       -0.5833750070         1.700733507        0.8859344617E-01
AX         1.425378964       -0.4638054856        0.1690715800    
AX       -0.5112648690        -1.017351874        0.9020996294    
AX         1.111050605         1.289703251        0.9493464331    
AX        0.6651303597       -0.3521856864         1.819481580    
AX        0.4603570686       -0.1676372998        -1.341472763    
AX        -1.124543272       -0.8264520672       -0.3995780611E-01
AX       -0.6796853801E-01    -1.143867391        -1.207794551    
AX        0.9002407851        -1.447247384        0.2981946547    
AX         1.277412708        0.6518566832        0.5159143541E-01
AX        -1.094025626         1.179971658       -0.7903487073    
AX        0.4911195398       -0.5366488292        0.7524402310    
AX        0.5090942912       -0.5786169550E-01   -0.2520792185    
AX        0.1895584141E-01     1.530483467         1.023881621    
AX        0.3390868251        0.5646722757        0.6324775077    
AX       -0.4573465711       -0.2304874549       -0.7404756042    
AX       -0.2395625271        0.7371751713       -0.2856654793    
AX       -0.4003289067       -0.1259781421        0.3203199065    
AX        0.4923255225        0.7393295168         1.691074031    
AX       -0.1095764683E-01    -1.007850153       -0.1204207045    
    38
Energy=    -170.228373347019    
AX       -0.3685651086        0.9927028369         1.718853473    
AX        0.9174762957       -0.9513034249       -0.6480512095    
AX         1.333100178        0.2358177981         1.032090233    
AX       -0.8562591066E-01     1.637133476       -0.9444028661    
AX         1.439596196        0.2367601763E-01   -0.7955431784    
AX       -0.7060574038        -1.730985003       -0.4819666148    
AX        -1.378648472       -0.1549757511        0.8332660060    
AX        0.4920768624         1.490793948       -0.2885494801E-03
AX       -0.8018372742        0.8452383248        0.6975614325    
AX       -0.1308346823        -1.927015124        0.4695783376    
AX        -1.308427628        0.1635036750        -1.287250047    
AX       -0.2917498600        0.6361022135        -1.390451731    
AX       -0.4157311724       -0.3829575232E-01     1.387144131    
AX        -1.151925505       -0.9522870409        -1.159978776    
AX       -0.4869466257       -0.3650782337        -1.835235362    
AX        0.4035287936        -1.917761116       -0.5008302083    
AX        -1.284364139        0.3164322031       -0.1896184312    
AX        0.6745908100        0.8297484073       -0.8790823048    
AX       -0.6422318169         1.719009550        0.1813178705E-01
AX         1.401580023       -0.4538468538        0.2079723324    
AX       -0.5701147550        -1.006689110        0.8808684553    
AX         1.031333808         1.309198668         1.008528516    
AX         1.085199601       -0.6463129270         1.655886056    
AX        0.4746392690       -0.1734629747        -1.309480007    
AX        -1.142797860       -0.8020393005       -0.6722182354E-01
AX       -0.4797557212E-01    -1.147205475        -1.171128659    
AX        0.8609364502        -1.399965537        0.3985820101    
AX         1.242289472        0.6994386364        0.6587269205E-01
AX        -1.100986614         1.177437062       -0.8523052608    
AX        0.4494654037       -0.4601514307        0.8031301198    
AX        0.4931862278       -0.2977591592E-01   -0.2163232274    
AX       -0.3388908884E-01     1.650611369        0.9323487684    
AX        0.2844470099        0.6137410874        0.6770989247    
AX       -0.4566584118       -0.2246162762       -0.7350857696    
AX       -0.2564142596        0.7561877870       -0.2917577462    
AX       -0.4358027372       -0.9284086670E-01    0.3244404187    
AX        0.5355741330        0.3612685231         1.727696759    
AX       -0.2143563473E-01   -0.9834334689       -0.8304868005E-01
    38
Energy=    -170.226578645358    
AX       -0.3622679970        0.9920696056         1.716731679    
AX        0.9176048197       -0.9509690649       -0.6464786218    
AX         1.333644432        0.2383753616         1.032626241    
AX       -0.8572643692E-01     1.637089124       -0.9449462257    
AX         1.439634037        0.2364150236E-01   -0.7942483365    
AX       -0.7058445517        -1.730794517       -0.4814445855    
AX        -1.380595441       -0.1547465033        0.8318040845    
AX        0.4916751731         1.491205194       -0.8785545195E-03
AX       -0.8024545323        0.8460779029        0.6976547086    
AX       -0.1310945185        -1.926811236        0.4702995879    
AX        -1.308204614        0.1631709731        -1.287566792    
AX       -0.2915374053        0.6358702720        -1.390458670    
AX       -0.4199524453       -0.3872760186E-01     1.387539477    
AX        -1.151492290       -0.9524917621        -1.160124922    
AX       -0.4862964827       -0.3653634863        -1.835009448    
AX        0.4038919620        -1.917348941       -0.4995173506    
AX        -1.284539782        0.3169417737       -0.1900899928    
AX        0.6745395992        0.8296984383       -0.8790301932    
AX       -0.6432095653         1.719313117        0.1705287797E-01
AX         1.400755947       -0.4531415913        0.2100373395    
AX       -0.5713092053        -1.006625787        0.8806197836    
AX         1.030800194         1.311494101         1.007272759    
AX         1.093164922       -0.6516849208         1.648182036    
AX        0.4749702146       -0.1736197741        -1.308653845    
AX        -1.143011717       -0.8016610173       -0.6761134464E-01
AX       -0.4752652252E-01    -1.147202310        -1.170343778    
AX        0.8602257190        -1.398899851        0.4008048372    
AX         1.241829768        0.7002081104        0.6603119802E-01
AX        -1.101026042         1.177362986       -0.8532028390    
AX        0.4480730591       -0.4588711045        0.8046427278    
AX        0.4928727843       -0.2924504928E-01   -0.2153135393    
AX       -0.3465244465E-01     1.653222655        0.9307486014    
AX        0.2836491685        0.6148157362        0.6786672848    
AX       -0.4565832617       -0.2244866017       -0.7347953628    
AX       -0.2566118843        0.7565040880       -0.2916246699    
AX       -0.4364613165       -0.9217692207E-01    0.3248282292    
AX        0.5346827426        0.3507613668         1.728039657    
AX       -0.2161608501E-01   -0.9829542671       -0.8224403758E-01
    38
Energy=    -170.228370028179    
AX       -0.3559708854        0.9914363744         1.714609884    
AX        0.9177333436       -0.9506347050       -0.6449060340    
AX         1.334188686        0.2409329251         1.033162248    
AX       -0.8582696318E-01     1.637044771       -0.9454895853    
AX         1.439671878        0.2360698709E-01   -0.7929534945    
AX       -0.7056316997        -1.730604030       -0.4809225562    
AX        -1.382542411       -0.1545172555        0.8303421629    
AX        0.4912734838         1.491616440       -0.1468559559E-02
AX       -0.8030717904        0.8469174809        0.6977479847    
AX       -0.1313543546        -1.926607348        0.4710208382    
AX        -1.307981601        0.1628382713        -1.287883537    
AX       -0.2913249507        0.6356383304        -1.390465608    
AX       -0.4241737182       -0.3915945140E-01     1.387934823    
AX        -1.151059075       -0.9526964832        -1.160271067    
AX       -0.4856463396       -0.3656487390        -1.834783533    
AX        0.4042551304        -1.916936766       -0.4982044929    
AX        -1.284715425        0.3174513443       -0.1905615544    
AX        0.6744883884        0.8296484693       -0.8789780816    
AX       -0.6441873136         1.719616683        0.1597396890E-01
AX         1.399931872       -0.4524363288        0.2121023465    
AX       -0.5725036556        -1.006562464        0.8803711118    
AX         1.030266579         1.313789535         1.006017001    
AX         1.101130244       -0.6570569146         1.640478016    
AX        0.4753011601       -0.1737765734        -1.307827684    
AX        -1.143225574       -0.8012827341       -0.6800086573E-01
AX       -0.4707747291E-01    -1.147199146        -1.169558898    
AX        0.8595149878        -1.397834165        0.4030276642    
AX         1.241370065        0.7009775844        0.6618970398E-01
AX        -1.101065470         1.177288910       -0.8541004172    
AX        0.4466807144       -0.4575907782        0.8061553359    
AX        0.4925593409       -0.2871418263E-01   -0.2143038513    
AX       -0.3541580046E-01     1.655833941        0.9291484344    
AX        0.2828513271        0.6158903851        0.6802356448    
AX       -0.4565081116       -0.2243569272       -0.7345049561    
AX       -0.2568095090        0.7568203890       -0.2914915936    
AX       -0.4371198958       -0.9151297745E-01    0.3252160396    
AX        0.5337913522        0.3402542105         1.728382556    
AX       -0.2179653528E-01   -0.9824750654       -0.8143939512E-01
    38
Energy=    -172.877728910878    
AX        0.3106416702        0.8754657267         1.686490958    
AX        0.9307047501       -0.9281521165       -0.5793352773    
AX         1.134119426        0.3134879743         1.147243359    
AX       -0.1009385254         1.637011238       -0.9850390126    
AX         1.441880158        0.4788806008E-01   -0.7359503297    
AX       -0.6921374214        -1.734560648       -0.4571288889    
AX        -1.416217607       -0.1213282557        0.8124244023    
AX        0.4356633257         1.526391424       -0.1047346818E-01
AX       -0.8769747777        0.8743632969        0.6276759200    
AX       -0.1537667462        -1.862417299        0.5374891104    
AX        -1.288561885        0.1424644146        -1.341412701    
AX       -0.2747229271        0.6222226277        -1.416725625    
AX       -0.4413447941        0.1276997549         1.357401615    
AX        -1.127217759       -0.9728146828        -1.161695352    
AX       -0.4441463180       -0.3984048044        -1.838267407    
AX        0.4154268014        -1.900621749       -0.4248760516    
AX        -1.318404135        0.3028299384       -0.2467639734    
AX        0.6706568876        0.8436700685       -0.8619352897    
AX       -0.6690469306         1.741250076       -0.2793995134E-01
AX         1.363588741       -0.3715427733        0.2967060210    
AX       -0.6034854604       -0.9274873933        0.9296235507    
AX        0.9712639936         1.406451140        0.9615681862    
AX         1.279866386       -0.7863811521         1.329455720    
AX        0.4990962846       -0.1752553000        -1.288665790    
AX        -1.153958025       -0.8072358741       -0.6574165330E-01
AX       -0.1499166811E-01    -1.153941805        -1.137003510    
AX        0.8509214882        -1.353490985        0.4534538888    
AX         1.208917190        0.7276738797        0.1136879576    
AX        -1.115691217         1.168237067       -0.9075758998    
AX        0.3848168694       -0.4284937112        0.8123138680    
AX        0.4708010127       -0.9757300208E-02   -0.2078785676    
AX       -0.1292879827         1.622933931        0.9532465256    
AX        0.2357815538        0.6521272029        0.6258106918    
AX       -0.4570142486       -0.2271510758       -0.7469590534    
AX       -0.2888668835        0.7681873250       -0.3285619726    
AX       -0.4778054705       -0.6541988558E-01    0.3045254113    
AX        0.4779840068       -0.2137487725         1.878054407    
AX       -0.3754976186E-01   -0.9621495624       -0.5724181944E-01
    38
Energy=    -172.877736411122    
AX        0.3106826947        0.8754765395         1.686455417    
AX        0.9306719749       -0.9282240181       -0.5792522059    
AX         1.134142268        0.3135522875         1.147158139    
AX       -0.1009588621         1.637048254       -0.9849951617    
AX         1.441844323        0.4778662733E-01   -0.7359266589    
AX       -0.6921459992        -1.734679183       -0.4571686949    
AX        -1.416221777       -0.1213084250        0.8123104843    
AX        0.4356566542         1.526410189       -0.1045566176E-01
AX       -0.8769388860        0.8743395308        0.6277587367    
AX       -0.1538123794        -1.862416460        0.5375653369    
AX        -1.288590813        0.1424826596        -1.341437161    
AX       -0.2747650597        0.6222833890        -1.416671559    
AX       -0.4412961899        0.1275935351         1.357407347    
AX        -1.127097953       -0.9728929601        -1.161872748    
AX       -0.4440930384       -0.3983003229        -1.838323328    
AX        0.4153858365        -1.900689152       -0.4247741551    
AX        -1.318365903        0.3028649864       -0.2467771818    
AX        0.6706657812        0.8436847948       -0.8619184232    
AX       -0.6690143995         1.741266921       -0.2784170412E-01
AX         1.363520965       -0.3715762888        0.2967063715    
AX       -0.6035748801       -0.9274947083        0.9295668559    
AX        0.9712695970         1.406470511        0.9614918432    
AX         1.280008733       -0.7862362142         1.329470421    
AX        0.4990827922       -0.1752418032        -1.288644950    
AX        -1.153907872       -0.8072653313       -0.6588984870E-01
AX       -0.1496189314E-01    -1.153948044        -1.137005043    
AX        0.8508763070        -1.353517698        0.4535799858    
AX         1.208864423        0.7276356800        0.1136514907    
AX        -1.115772859         1.168317222       -0.9075156093    
AX        0.3847824938       -0.4285173519        0.8123426351    
AX        0.4707456938       -0.9778158382E-02   -0.2079010416    
AX       -0.1292767674         1.622973231        0.9533049425    
AX        0.2357489178        0.6521321079        0.6258074271    
AX       -0.4570391357       -0.2271505666       -0.7470038832    
AX       -0.2888901172        0.7681802547       -0.3285360059    
AX       -0.4777996922       -0.6544528148E-01    0.3045187471    
AX        0.4781603054       -0.2136415231         1.878064355    
AX       -0.3758528313E-01   -0.9621752297       -0.5724951086E-01
