    38
Energy=    -169.673937705251    
AX        0.4987133097        0.5711921324E-01     1.834723759    
AX         1.169888277        -1.012676990       -0.5950239937    
AX         1.414729791        0.1967336652         1.232669445    
AX       -0.1058501568         1.110682191       -0.7290994815    
AX         1.374188940        0.4861696944E-01   -0.7781173938    
AX       -0.5392856578        -1.314072334       -0.1661673184    
AX        -1.209729282       -0.4735093173E-01    0.9400353301    
AX        0.4512041175         1.503703444        0.1459020765    
AX        -1.215070595         1.062379922        0.8629279336    
AX        0.2089585637E-01    -1.582509971        0.7963977362    
AX        -1.595332285        0.5345124796E-01    -1.039078608    
AX       -0.5534578517        0.7050535597        -1.719184482    
AX       -0.3636039695        0.5403893975         1.355106359    
AX       -0.9520336629       -0.8540323734        -1.074667877    
AX       -0.2616522246       -0.3684488282        -1.785575119    
AX        0.4282751781        -1.783114050       -0.3193144378    
AX        -1.278243750        0.4625518077       -0.4309081571E-01
AX        0.9863657942         1.083907488       -0.7409110893    
AX       -0.8036797815         1.622306248       -0.2379042203E-01
AX         1.381579412       -0.3632790002        0.2773677802    
AX        -1.039379055        -1.130705569        0.7743922279    
AX        0.6405038892         1.041039147         1.175966066    
AX        0.8559601269       -0.8097507390         1.199696541    
AX        0.8876852431       -0.5996483771        -1.591575565    
AX        -1.455346422       -0.6145426774       -0.1236706441    
AX        0.1216649896       -0.7301469054       -0.8277349421    
AX         1.223284272        -1.503975519        0.4205956939    
AX         1.210396376        0.7122541029        0.2619403312    
AX        -1.191024521         1.089042083       -0.9200708684    
AX       -0.2328757859       -0.5756735886         1.240131758    
AX        0.4273246547        0.3577672438        -1.353671538    
AX       -0.2762788418         1.613638439        0.9766424184    
AX        0.4246198010        0.1846992509       -0.3005297207    
AX       -0.5447820306        0.1299354695       -0.7892404923    
AX       -0.2888098817        0.7407067685        0.2965025593    
AX       -0.4777404405       -0.2958962816        0.1969524336    
AX        0.4428126631        0.8869821414E-01    0.7461675097    
AX        0.4240835053       -0.8188517371        0.1863968512    
    38
Energy=    -169.673731473292    
AX        0.4983984568        0.5663741497E-01     1.835214353    
AX         1.170415044        -1.012829865       -0.5959675055    
AX         1.414054555        0.1965122869         1.232874054    
AX       -0.1056777684         1.109356177       -0.7286924891    
AX         1.373725370        0.4827174148E-01   -0.7792492045    
AX       -0.5386295360        -1.313218758       -0.1663619235    
AX        -1.210222692       -0.4686277472E-01    0.9403541351    
AX        0.4506236241         1.505036912        0.1458360845    
AX        -1.214805103         1.062911322        0.8628925022    
AX        0.2099283967E-01    -1.581163940        0.7967827374    
AX        -1.594803515        0.5403472265E-01    -1.039537500    
AX       -0.5542648293        0.7034751714        -1.718588451    
AX       -0.3641100574        0.5405107526         1.355780413    
AX       -0.9521700397       -0.8546893302        -1.075302708    
AX       -0.2619379565       -0.3694162262        -1.786363853    
AX        0.4285265055        -1.783221131       -0.3197888074    
AX        -1.277367183        0.4629688211       -0.4297243925E-01
AX        0.9861481491         1.083413914       -0.7406616560    
AX       -0.8021739445         1.622819798       -0.2365378661E-01
AX         1.381242830       -0.3624322819        0.2766327195    
AX        -1.039405309        -1.130150118        0.7741614528    
AX        0.6393234199         1.040658237         1.176368165    
AX        0.8553544192       -0.8102824289         1.199183640    
AX        0.8882869146       -0.6001697574        -1.593089884    
AX        -1.454397022       -0.6138611842       -0.1241362691    
AX        0.1223228774       -0.7304818789       -0.8290378437    
AX         1.224089771        -1.503374424        0.4196154664    
AX         1.209028764        0.7130312876        0.2628019051    
AX        -1.190550413         1.089594006       -0.9196287524    
AX       -0.2336752209       -0.5754281058         1.241765003    
AX        0.4268880163        0.3564638040        -1.353597662    
AX       -0.2765177810         1.614382855        0.9773786938    
AX        0.4247112542        0.1842960110       -0.3002350015    
AX       -0.5446721684        0.1284038548       -0.7887242914    
AX       -0.2880810597        0.7411459331        0.2975517735    
AX       -0.4773947041       -0.2955757632        0.1983786529    
AX        0.4423365408        0.8802964722E-01    0.7467030648    
AX        0.4243869523       -0.8187967031        0.1853152116    
    38
Energy=    -169.672060511082    
AX        0.4992995763        0.5750033057E-01     1.835883278    
AX         1.171831172        -1.012341571       -0.5959485900    
AX         1.414057675        0.1967256559         1.231934338    
AX       -0.1081773021         1.106489396       -0.7287096349    
AX         1.374117030        0.4964642812E-01   -0.7802057922    
AX       -0.5386884232        -1.310410921       -0.1685460642    
AX        -1.212941214       -0.4511981267E-01    0.9440591054    
AX        0.4492124899         1.508155797        0.1442532601    
AX        -1.213031951         1.064533329        0.8621451712    
AX        0.1664814495E-01    -1.580135583        0.7961455329    
AX        -1.588969922        0.5728419162E-01    -1.045660973    
AX       -0.5657410631        0.6934732281        -1.712803548    
AX       -0.3637607810        0.5401455317         1.355490276    
AX       -0.9503516342       -0.8570979493        -1.081946819    
AX       -0.2577609328       -0.3732664393        -1.789254931    
AX        0.4283733819        -1.782983638       -0.3208628360    
AX        -1.276451006        0.4623389085       -0.4174116465E-01
AX        0.9835315751         1.083512638       -0.7415113602    
AX       -0.7968044615         1.626766743       -0.2159004978E-01
AX         1.379714130       -0.3613734518        0.2758941338    
AX        -1.040762330        -1.126790340        0.7719685545    
AX        0.6394356651         1.040139127         1.175257352    
AX        0.8546066201       -0.8111963378         1.199254525    
AX        0.8916153001       -0.5977965026        -1.593597010    
AX        -1.450141169       -0.6127936686       -0.1313550548    
AX        0.1249735960       -0.7331032562       -0.8312354711    
AX         1.224184528        -1.503313243        0.4191512928    
AX         1.206562515        0.7141637185        0.2622496938    
AX        -1.192933132         1.093932629       -0.9140725543    
AX       -0.2347558524       -0.5760579520         1.247028801    
AX        0.4237096942        0.3559849384        -1.353212241    
AX       -0.2747742900         1.614973087        0.9792267182    
AX        0.4255054975        0.1817803001       -0.2997225941    
AX       -0.5434422977        0.1228969205       -0.7833819790    
AX       -0.2861978299        0.7418507007        0.2974561633    
AX       -0.4771673911       -0.2952076373        0.2055930438    
AX        0.4414782397        0.8643054696E-01    0.7476923032    
AX        0.4239961534       -0.8197358410        0.1846751265    
    38
Energy=    -169.665494749590    
AX        0.4984193523        0.6300019037E-01     1.836164990    
AX         1.177231682        -1.015431889       -0.5972985332    
AX         1.413746237        0.1923451116         1.232626895    
AX       -0.1093553876         1.107025619       -0.7321216388    
AX         1.370749440        0.4747258761E-01   -0.7749096493    
AX       -0.5343245210        -1.307800477       -0.1728608710    
AX        -1.214549217       -0.4196345092E-01    0.9520045471    
AX        0.4489439841         1.491643711        0.1459231638    
AX        -1.214197518         1.070300607        0.8535439547    
AX        0.2097550832E-01    -1.569466900        0.7937899970    
AX        -1.585348460        0.5715442406E-01    -1.055289283    
AX       -0.5814676397        0.6842746067        -1.704405428    
AX       -0.3641850704        0.5460666150         1.354242598    
AX       -0.9450118165       -0.8577050772        -1.088878639    
AX       -0.2558173090       -0.3750265779        -1.796016535    
AX        0.4297241367        -1.779811054       -0.3252989104    
AX        -1.292252834        0.4494317226       -0.3796282559E-01
AX        0.9834041883         1.081384929       -0.7431381131    
AX       -0.7809446927         1.643716360       -0.2096917269E-01
AX         1.386386137       -0.3672871529        0.2794358094    
AX        -1.037527253        -1.124818441        0.7707427418    
AX        0.6485019035         1.039711090         1.178824152    
AX        0.8490897701       -0.8081349322         1.197905401    
AX        0.8992320857       -0.5945089319        -1.595755825    
AX        -1.448552867       -0.6232182508       -0.1400423264    
AX        0.1299991105       -0.7270350086       -0.8369237622    
AX         1.216677704        -1.505328153        0.4222763243    
AX         1.214150215        0.7073926240        0.2607535339    
AX        -1.194844335         1.094495316       -0.8976447373    
AX       -0.2374567629       -0.5704149404         1.254460648    
AX        0.4183203151        0.3532415299        -1.353423944    
AX       -0.2693023995         1.610572144        0.9813548079    
AX        0.4217673790        0.1893440893       -0.2974782178    
AX       -0.5458835887        0.1209063640       -0.7733168287    
AX       -0.3012841643        0.7390908944        0.2916856390    
AX       -0.4799402315       -0.2985256774        0.2126308438    
AX        0.4384539682        0.9149900080E-01    0.7471093638    
AX        0.4264729511       -0.8135926210        0.1782598300    
    38
Energy=    -169.652673042138    
AX        0.4821466465        0.7622436411E-01     1.825080541    
AX         1.164395973        -1.008014999       -0.5966477902    
AX         1.408700007        0.1905692435         1.232727512    
AX       -0.8278843674E-01     1.132093505       -0.7545571356    
AX         1.386704589        0.4614565261E-01   -0.7958031493    
AX       -0.5363263592        -1.333303917       -0.1593166763    
AX        -1.228172273       -0.6128019860E-01    0.9550500889    
AX        0.4459769448         1.465262219        0.1536941964    
AX        -1.219540239         1.068764831        0.7978883681    
AX        0.3425641890E-01    -1.580448366        0.8042160332    
AX        -1.554269563        0.7884365987E-01    -1.093286960    
AX       -0.6026113670        0.7044616156        -1.685904955    
AX       -0.3798029384        0.5402586110         1.317453819    
AX       -0.9488758785       -0.8447079338        -1.055567831    
AX       -0.2776325462       -0.3547091326        -1.772361721    
AX        0.4373309386        -1.783891520       -0.3082292614    
AX        -1.332353304        0.3887261764       -0.4296778793E-01
AX         1.005829253         1.080630417       -0.7394466001    
AX       -0.7080756383         1.700073611       -0.2305038690E-01
AX         1.377441115       -0.3578597751        0.2700418131    
AX        -1.031293862        -1.148042441        0.7895211232    
AX        0.6568302792         1.040440610         1.192493844    
AX        0.8508446812       -0.7930749167         1.197776905    
AX        0.8735687572       -0.5939515015        -1.592575108    
AX        -1.476768144       -0.6795601376       -0.1146728330    
AX        0.1169274391       -0.7284076050       -0.8220233708    
AX         1.225813765        -1.489577830        0.4259098627    
AX         1.230511208        0.7147165160        0.2679446152    
AX        -1.171765635         1.101650130       -0.8332398747    
AX       -0.2322215634       -0.5713300586         1.239958070    
AX        0.4219728289        0.3707937217        -1.363578237    
AX       -0.2693265191         1.589801150        0.9849558811    
AX        0.4443373757        0.1898815619       -0.3083130677    
AX       -0.5311689134        0.1446989651       -0.7611882905    
AX       -0.3304027389        0.7259380848        0.2409437443    
AX       -0.4998219036       -0.3172962462        0.2046004593    
AX        0.4308126882        0.1069624780        0.7335431854    
AX        0.4188169155       -0.8114805457        0.1889309724    
    38
Energy=    -169.653418805468    
AX        0.4811628361        0.7695136176E-01     1.824321771    
AX         1.163625179        -1.007377396       -0.5964645987    
AX         1.408550585        0.1907833112         1.232831162    
AX       -0.8132495404E-01     1.134101618       -0.7557854926    
AX         1.387933085        0.4610390336E-01   -0.7972992502    
AX       -0.5365647214        -1.335476635       -0.1575196566    
AX        -1.229271843       -0.6316510452E-01    0.9534396481    
AX        0.4458060756         1.463789022        0.1543881363    
AX        -1.220184409         1.067610672        0.7937113849    
AX        0.3595045193E-01    -1.581567724        0.8051735112    
AX        -1.550052625        0.8389985179E-01    -1.100765286    
AX       -0.6047210345        0.7056247516        -1.685035333    
AX       -0.3812250603        0.5391469126         1.315075040    
AX       -0.9505750124       -0.8423819404        -1.050652153    
AX       -0.2801911133       -0.3538561566        -1.769854835    
AX        0.4378130571        -1.784003024       -0.3074216692    
AX        -1.334135808        0.3850350674       -0.4553262388E-01
AX         1.006905304         1.080456405       -0.7392244116    
AX       -0.7043408618         1.702748256       -0.2274233314E-01
AX         1.377164945       -0.3572468404        0.2696007489    
AX        -1.030105074        -1.150659381        0.7922100408    
AX        0.6569733328         1.040514521         1.193278781    
AX        0.8514740521       -0.7922129051         1.197938688    
AX        0.8713274313       -0.5938845665        -1.591957096    
AX        -1.479266957       -0.6835494461       -0.1093521561    
AX        0.1156363341       -0.7290490221       -0.8205434881    
AX         1.226429419        -1.488924091        0.4261593170    
AX         1.231592703        0.7152531371        0.2683726460    
AX        -1.170227067         1.103785544       -0.8299088587    
AX       -0.2314334431       -0.5715131645         1.238540340    
AX        0.4216610437        0.3719440828        -1.364380176    
AX       -0.2699819907         1.588229372        0.9854030762    
AX        0.4460682869        0.1895723116       -0.3090376201    
AX       -0.5294647228        0.1466094381       -0.7607876282    
AX       -0.3317133559        0.7250079284        0.2378852569    
AX       -0.5006364127       -0.3186331476        0.2033186905    
AX        0.4307426872        0.1079126344        0.7326566805    
AX        0.4185996572       -0.8115795563        0.1899597479    
    38
Energy=    -169.654053836036    
AX        0.4807186252        0.7722025129E-01     1.823988441    
AX         1.163271507        -1.007080736       -0.5963974598    
AX         1.408505435        0.1909203766         1.232883803    
AX       -0.8085479804E-01     1.134970080       -0.7562793627    
AX         1.388463813        0.4603637720E-01   -0.7979602973    
AX       -0.5366987556        -1.336328325       -0.1568292233    
AX        -1.229731026       -0.6396785533E-01    0.9527703643    
AX        0.4458100693         1.463057187        0.1546598050    
AX        -1.220481620         1.067161494        0.7918906711    
AX        0.3667203200E-01    -1.581994645        0.8055525154    
AX        -1.547620403        0.8668977333E-01    -1.104869004    
AX       -0.6053809887        0.7063578610        -1.684758934    
AX       -0.3819180236        0.5385574855         1.314129944    
AX       -0.9517211592       -0.8406166540        -1.048110079    
AX       -0.2812866196       -0.3534981799        -1.768866340    
AX        0.4379900438        -1.784023032       -0.3070735831    
AX        -1.334808032        0.3832535154       -0.4735370132E-01
AX         1.007329201         1.080362329       -0.7391418501    
AX       -0.7028428372         1.703656675       -0.2258150948E-01
AX         1.377061803       -0.3570126826        0.2694545518    
AX        -1.029544302        -1.151857510        0.7935389775    
AX        0.6570549374         1.040611494         1.193572473    
AX        0.8517431424       -0.7919097459         1.198035211    
AX        0.8703617188       -0.5938173971        -1.591651510    
AX        -1.479955358       -0.6859209656       -0.1058673100    
AX        0.1150115623       -0.7292631311       -0.8199440941    
AX         1.226684069        -1.488634146        0.4262508837    
AX         1.232085262        0.7154806023        0.2685576612    
AX        -1.169639712         1.104055434       -0.8281839124    
AX       -0.2311170339       -0.5716220560         1.237854420    
AX        0.4215357441        0.3723806700        -1.364730230    
AX       -0.2703253039         1.587686640        0.9856297853    
AX        0.4467149257        0.1893346250       -0.3094083963    
AX       -0.5291544951        0.1471547889       -0.7608714816    
AX       -0.3319899617        0.7249217583        0.2368749583    
AX       -0.5011524339       -0.3191250361        0.2025598052    
AX        0.4307573390        0.1083670473        0.7322726425    
AX        0.4184516338       -0.8115643688        0.1904013651    
    38
Energy=    -170.504122785506    
AX        0.4390644396        0.8262231515E-01     1.796478547    
AX         1.105398702       -0.9695282185       -0.5975525900    
AX         1.399098105        0.2084159461         1.247667997    
AX       -0.1985927698E-01     1.219547505       -0.7763270673    
AX         1.435551642        0.3698082299E-01   -0.8725979444    
AX       -0.5613191473        -1.371195409       -0.5068789925E-01
AX        -1.256421318       -0.1325543047        0.9121107581    
AX        0.4732628982         1.471727733        0.1814506570    
AX        -1.247801953        0.9762968165        0.5821759944    
AX        0.1114723824        -1.616563276        0.8362670272    
AX        -1.401800643        0.2027309648        -1.337808937    
AX       -0.5523851931        0.8392437028        -1.674964634    
AX       -0.4284105036        0.4977040727         1.236974568    
AX        -1.041179475       -0.6975156513       -0.8203838235    
AX       -0.3803851452       -0.2993289557        -1.702864912    
AX        0.4143891709        -1.772323450       -0.2919113193    
AX        -1.410004550        0.1871303365       -0.1858488367    
AX         1.049930294         1.063667917       -0.7236741475    
AX       -0.6163366149         1.778327640       -0.3075203422E-01
AX         1.369200377       -0.3407248396        0.2598379068    
AX       -0.9839073189        -1.291295498        0.9614703430    
AX        0.6394371693         1.050466193         1.215393507    
AX        0.8711441105       -0.7691421333         1.196072761    
AX        0.7615970033       -0.5939591450        -1.577402553    
AX        -1.539483765       -0.8574686108        0.1315357946    
AX        0.3539364347E-01   -0.7547290187       -0.7804672070    
AX         1.224263709        -1.470593071        0.4143741386    
AX         1.263688720        0.7343334397        0.2883126514    
AX        -1.117676361         1.092203785       -0.7072821371    
AX       -0.2115590607       -0.5817014059         1.164231208    
AX        0.4366597592        0.4185531020        -1.389253102    
AX       -0.3196614637         1.538253467        0.9780518321    
AX        0.5093809606        0.1481026003       -0.3431444731    
AX       -0.4668860532        0.2260194172       -0.7731925986    
AX       -0.3008992167        0.7288282195        0.1633020945    
AX       -0.5230435684       -0.3153881703        0.1489574389    
AX        0.4420177976        0.1390963131        0.7038295572    
AX        0.3980697445       -0.8062411531        0.2176214324    
    38
Energy=    -170.712652214222    
AX        0.4118201770        0.8030755372E-01     1.792519992    
AX         1.102736141       -0.9498191847       -0.5952190569    
AX         1.381181702        0.2098532521         1.254293669    
AX       -0.1831041399E-01     1.254815523       -0.7980585412    
AX         1.440142500        0.4628764939E-01   -0.9163384501    
AX       -0.5522653314        -1.340304380       -0.1949896841E-01
AX        -1.278388081       -0.1606022350        0.9175282291    
AX        0.5060695048         1.584971576        0.1661805980    
AX        -1.186915680        0.9555965860        0.4988755475    
AX        0.1149785301        -1.640576561        0.8495630273    
AX        -1.395292108        0.2053903834        -1.315752517    
AX       -0.5689991811        0.8431345681        -1.659706741    
AX       -0.4396809354        0.4793174589         1.189581652    
AX        -1.035751662       -0.6952041382       -0.8035941263    
AX       -0.3931350945       -0.2899872379        -1.685598237    
AX        0.4112484986        -1.772286985       -0.3117999235    
AX        -1.428880552        0.1488266323       -0.1948714603    
AX         1.040005485         1.062673840       -0.7185565404    
AX       -0.5880736169         1.809907344       -0.4376205416E-01
AX         1.368279686       -0.3433331014        0.2738339308    
AX        -1.002391663        -1.319927762        0.9840991473    
AX        0.5957858841         1.039126727         1.177971723    
AX        0.8696669730       -0.7902679653         1.206594989    
AX        0.7468272629       -0.5886948291        -1.578077340    
AX        -1.547205752       -0.8867767558        0.1394249328    
AX        0.3148340572E-01   -0.7638872465       -0.7775835970    
AX         1.228997120        -1.478242412        0.4053461939    
AX         1.207470185        0.7403312119        0.2941281400    
AX        -1.111577058         1.084870928       -0.6593659238    
AX       -0.2205252741       -0.6124684038         1.173715983    
AX        0.4281619175        0.4262676431        -1.384622513    
AX       -0.3408859655         1.545847344        0.9696409875    
AX        0.5350811100        0.1068404555       -0.3477646349    
AX       -0.4532243955        0.2385703259       -0.7512522231    
AX       -0.1885290618        0.7719912584        0.1573197402    
AX       -0.5039890109       -0.2702241154        0.1790146020    
AX        0.4418449630        0.9714079420E-01    0.7087297682    
AX        0.3922397927       -0.8294657418        0.2230599947    
    38
Energy=    -170.713081773139    
AX        0.4125213297        0.8078795148E-01     1.792251664    
AX         1.102417581       -0.9505212143       -0.5946644927    
AX         1.382261511        0.2095586560         1.253744797    
AX       -0.1985645585E-01     1.256129610       -0.7986701718    
AX         1.441201207        0.4691762017E-01   -0.9127202644    
AX       -0.5528054984        -1.340024377       -0.1943556553E-01
AX        -1.277802624       -0.1617241906        0.9177372423    
AX        0.5063452927         1.584906141        0.1654598717    
AX        -1.186424926        0.9542399215        0.4985729530    
AX        0.1150465723        -1.640545970        0.8501322156    
AX        -1.395562164        0.2048892969        -1.316547592    
AX       -0.5696638858        0.8430142060        -1.660408515    
AX       -0.4391189135        0.4787367704         1.188913831    
AX        -1.035810708       -0.6952185267       -0.8039878885    
AX       -0.3924001760       -0.2896842969        -1.685852577    
AX        0.4102582959        -1.772447226       -0.3109897126    
AX        -1.429323115        0.1482356907       -0.1957106988    
AX         1.038600457         1.063504633       -0.7183922659    
AX       -0.5892859438         1.809421599       -0.4282437407E-01
AX         1.368362822       -0.3439075007        0.2736033259    
AX        -1.002799770        -1.319098187        0.9836285505    
AX        0.5980762458         1.039407647         1.177487656    
AX        0.8699248015       -0.7899854604         1.206873810    
AX        0.7474762649       -0.5868537954        -1.576462769    
AX        -1.548013548       -0.8868530481        0.1388181379    
AX        0.3135820083E-01   -0.7639456703       -0.7772648609    
AX         1.227684687        -1.479277804        0.4063610916    
AX         1.208360864        0.7398291026        0.2931773078    
AX        -1.112551093         1.084818932       -0.6596404263    
AX       -0.2201468037       -0.6123688383         1.173635081    
AX        0.4278252171        0.4276769905        -1.384351927    
AX       -0.3394557554         1.544681234        0.9695614257    
AX        0.5345209652        0.1065824132       -0.3478616186    
AX       -0.4536512883        0.2389022560       -0.7516573865    
AX       -0.1879889604        0.7719855350        0.1566511674    
AX       -0.5040149965       -0.2698008227        0.1787434597    
AX        0.4425243225        0.9746479735E-01    0.7086292219    
AX        0.3919099889       -0.8294340770        0.2234602961    
    38
Energy=    -170.713101032178    
AX        0.4125887899        0.8069023163E-01     1.792140277    
AX         1.102343412       -0.9509689308       -0.5946526925    
AX         1.382191255        0.2097093718         1.253515323    
AX       -0.1977724854E-01     1.256185865       -0.7986035494    
AX         1.441621268        0.4666837834E-01   -0.9115226545    
AX       -0.5528173529        -1.340138925       -0.1949200824E-01
AX        -1.277623395       -0.1617586774        0.9178256913    
AX        0.5062662346         1.584950100        0.1652875421    
AX        -1.186508399        0.9543046171        0.4987231240    
AX        0.1151612158        -1.640631742        0.8501627885    
AX        -1.395589086        0.2050076753        -1.316519556    
AX       -0.5697386790        0.8432137235        -1.660320589    
AX       -0.4390579999        0.4788275032         1.188987324    
AX        -1.035912211       -0.6952439123       -0.8040497179    
AX       -0.3923538060       -0.2896636809        -1.685827281    
AX        0.4101751226        -1.772736200       -0.3108768539    
AX        -1.429291684        0.1483219821       -0.1956425704    
AX         1.038747936         1.063481322       -0.7186295514    
AX       -0.5892722478         1.809629679       -0.4290548191E-01
AX         1.368264708       -0.3439236104        0.2733405892    
AX        -1.002587661        -1.319310122        0.9836248250    
AX        0.5978559766         1.039418605         1.177211348    
AX        0.8700590072       -0.7899404368         1.206740208    
AX        0.7476798510       -0.5865071853        -1.576103952    
AX        -1.547852019       -0.8868210723        0.1389184058    
AX        0.3124201831E-01   -0.7640122311       -0.7772599766    
AX         1.227638741        -1.479428555        0.4063791561    
AX         1.208195769        0.7398277421        0.2929547528    
AX        -1.112504442         1.084913801       -0.6595254031    
AX       -0.2201128111       -0.6124292454         1.173530350    
AX        0.4277651590        0.4278825400        -1.384403574    
AX       -0.3396377139         1.544842503        0.9694994507    
AX        0.5342932867        0.1066038617       -0.3479635625    
AX       -0.4537156700        0.2389456338       -0.7517062612    
AX       -0.1881307538        0.7720539250        0.1566346354    
AX       -0.5040051466       -0.2699123185        0.1786337709    
AX        0.4424746388        0.9744521753E-01    0.7084994682    
AX        0.3919239382       -0.8294974319        0.2233962055    
