    38
Energy=    -170.713101032073    
AX        0.4125893376        0.8072004798E-01     1.792138863    
AX         1.102371852       -0.9509398490       -0.5946449757    
AX         1.382186771        0.2097648929         1.253511312    
AX       -0.1981730174E-01     1.256177415       -0.7986156330    
AX         1.441618542        0.4670469926E-01   -0.9115256415    
AX       -0.5527762099        -1.340155955       -0.1947749033E-01
AX        -1.277617011       -0.1617891059        0.9178296771    
AX        0.5062175779         1.584967287        0.1652713396    
AX        -1.186536980        0.9542722784        0.4987154938    
AX        0.1152137270        -1.640620592        0.8501778196    
AX        -1.395597515        0.2049515503        -1.316519506    
AX       -0.5697673953        0.8431799237        -1.660327729    
AX       -0.4390706254        0.4788251965         1.188983279    
AX        -1.035892201       -0.6952838120       -0.8040409672    
AX       -0.3923471626       -0.2896919319        -1.685823929    
AX        0.4102286678        -1.772725763       -0.3108620611    
AX        -1.429296963        0.1482756393       -0.1956419115    
AX         1.038714060         1.063506919       -0.7186416621    
AX       -0.5893282208         1.809610945       -0.4292209914E-01
AX         1.368275901       -0.3438788569        0.2733423219    
AX        -1.002545403        -1.319331400        0.9836401398    
AX        0.5978254085         1.039448491         1.177199980    
AX        0.8700859037       -0.7899019486         1.206746266    
AX        0.7476957249       -0.5864992276        -1.576099156    
AX        -1.547824476       -0.8868676016        0.1389301478    
AX        0.3126418214E-01   -0.7640186063       -0.7772525956    
AX         1.227684058        -1.479387539        0.4063909971    
AX         1.208173497        0.7398678258        0.2929453965    
AX        -1.112539063         1.084872859       -0.6595341377    
AX       -0.2200914736       -0.6124250926         1.173536575    
AX        0.4277498799        0.4278824994        -1.384408363    
AX       -0.3396843365         1.544841300        0.9694850853    
AX        0.5342896254        0.1066170419       -0.3479655023    
AX       -0.4537242885        0.2389242460       -0.7517077457    
AX       -0.1881540935        0.7720495626        0.1566275001    
AX       -0.5039967297       -0.2699258995        0.1786375147    
AX        0.4424730205        0.9746564081E-01    0.7084978177    
AX        0.3919497144       -0.8294830793        0.2234035799    
    38
Energy=    -170.713101007555    
AX        0.4125849196        0.8071893209E-01     1.792141435    
AX         1.102370715       -0.9509264964       -0.5946431970    
AX         1.382185879        0.2097653994         1.253517762    
AX       -0.1982159683E-01     1.256186948       -0.7986201793    
AX         1.441615586        0.4671345551E-01   -0.9115533919    
AX       -0.5527786849        -1.340147860       -0.1946823539E-01
AX        -1.277622577       -0.1617945435        0.9178303215    
AX        0.5062269326         1.584994802        0.1652706259    
AX        -1.186513377        0.9542598001        0.4986952313    
AX        0.1152061324        -1.640625869        0.8501780031    
AX        -1.395593595        0.2049444075        -1.316521597    
AX       -0.5697703313        0.8431788518        -1.660327013    
AX       -0.4390695441        0.4788192814         1.188974229    
AX        -1.035889760       -0.6952845121       -0.8040369029    
AX       -0.3923458180       -0.2896901259        -1.685817642    
AX        0.4102255385        -1.772721726       -0.3108649860    
AX        -1.429303313        0.1482678864       -0.1956477367    
AX         1.038705996         1.063508949       -0.7186371379    
AX       -0.5893319253         1.809603461       -0.4292124826E-01
AX         1.368279521       -0.3438813069        0.2733521023    
AX        -1.002555059        -1.319329068        0.9836469366    
AX        0.5978217338         1.039446655         1.177196405    
AX        0.8700862843       -0.7899086668         1.206750958    
AX        0.7476878836       -0.5864956584        -1.576100489    
AX        -1.547830945       -0.8868723149        0.1389296910    
AX        0.3126277453E-01   -0.7640239757       -0.7772502183    
AX         1.227683576        -1.479388982        0.4063870536    
AX         1.208163471        0.7398684456        0.2929470806    
AX        -1.112545452         1.084869497       -0.6595417330    
AX       -0.2200923078       -0.6124308575         1.173538165    
AX        0.4277476156        0.4278882463        -1.384406310    
AX       -0.3396843552         1.544841119        0.9694861765    
AX        0.5342993240        0.1066030481       -0.3479670477    
AX       -0.4537202718        0.2389283083       -0.7517009123    
AX       -0.1881167872        0.7720567111        0.1566282855    
AX       -0.5039942838       -0.2699134286        0.1786451028    
AX        0.4424785233        0.9745729030E-01    0.7085025697    
AX        0.3919475790       -0.8294861035        0.2234078434    
    38
Energy=    -170.713100689116    
AX        0.4125449235        0.8070940809E-01     1.792148918    
AX         1.102371934       -0.9508951442       -0.5946331266    
AX         1.382147551        0.2097753265         1.253547416    
AX       -0.1979742879E-01     1.256186827       -0.7986269450    
AX         1.441595592        0.4670227189E-01   -0.9116509079    
AX       -0.5527631923        -1.340147872       -0.1946177730E-01
AX        -1.277592012       -0.1618168728        0.9178341801    
AX        0.5062436486         1.585019738        0.1652704513    
AX        -1.186502935        0.9542751632        0.4986761429    
AX        0.1152388949        -1.640635786        0.8501843427    
AX        -1.395589336        0.2049738089        -1.316504967    
AX       -0.5697614238        0.8431907844        -1.660328736    
AX       -0.4390763095        0.4788399718         1.188970383    
AX        -1.035898683       -0.6952688751       -0.8040267355    
AX       -0.3923803441       -0.2896935437        -1.685810638    
AX        0.4102360307        -1.772705156       -0.3109002389    
AX        -1.429299836        0.1482647276       -0.1956345953    
AX         1.038717461         1.063478456       -0.7186382229    
AX       -0.5892930861         1.809628201       -0.4294030736E-01
AX         1.368282836       -0.3438817853        0.2733870933    
AX        -1.002524226        -1.319401341        0.9836534700    
AX        0.5977644477         1.039448069         1.177189986    
AX        0.8700687275       -0.7899196682         1.206763458    
AX        0.7476507095       -0.5865365667        -1.576107988    
AX        -1.547806068       -0.8868916436        0.1389507988    
AX        0.3125097597E-01   -0.7640177867       -0.7772410391    
AX         1.227686137        -1.479392926        0.4063802042    
AX         1.208138946        0.7398695052        0.2929659251    
AX        -1.112525508         1.084877161       -0.6595206424    
AX       -0.2201140381       -0.6124356729         1.173525621    
AX        0.4277446389        0.4278674411        -1.384421021    
AX       -0.3397228259         1.544874631        0.9694851282    
AX        0.5343184967        0.1065909095       -0.3479683526    
AX       -0.4537057492        0.2389424059       -0.7517014452    
AX       -0.1880911940        0.7720728151        0.1566317345    
AX       -0.5039771028       -0.2699042957        0.1786307352    
AX        0.4424657904        0.9744831306E-01    0.7085080623    
AX        0.3919535588       -0.8294909991        0.2234136359    
    38
Energy=    -170.713100555862    
AX        0.4125558669        0.8071541801E-01     1.792150850    
AX         1.102365709       -0.9508948674       -0.5946323152    
AX         1.382151665        0.2097763982         1.253538183    
AX       -0.1979750129E-01     1.256184401       -0.7986202900    
AX         1.441599225        0.4670131986E-01   -0.9116406352    
AX       -0.5527670641        -1.340149155       -0.1946197751E-01
AX        -1.277590553       -0.1618145105        0.9178241123    
AX        0.5062406247         1.585024908        0.1652747130    
AX        -1.186503043        0.9542724991        0.4986716024    
AX        0.1152373371        -1.640637089        0.8501900912    
AX        -1.395585897        0.2049797919        -1.316513527    
AX       -0.5697544194        0.8431924697        -1.660329507    
AX       -0.4390745713        0.4788402698         1.188977059    
AX        -1.035904096       -0.6952655238       -0.8040323624    
AX       -0.3923760604       -0.2896950394        -1.685807563    
AX        0.4102347721        -1.772710645       -0.3108980819    
AX        -1.429300901        0.1482641410       -0.1956405281    
AX         1.038716087         1.063480039       -0.7186451876    
AX       -0.5892958718         1.809623629       -0.4293259174E-01
AX         1.368282747       -0.3438850225        0.2733846215    
AX        -1.002519189        -1.319391058        0.9836512779    
AX        0.5977614786         1.039447568         1.177184800    
AX        0.8700744830       -0.7899225803         1.206761840    
AX        0.7476452715       -0.5865398070        -1.576102279    
AX        -1.547805249       -0.8868958185        0.1389436504    
AX        0.3124734264E-01   -0.7640213393       -0.7772384948    
AX         1.227690077        -1.479394620        0.4063723211    
AX         1.208129065        0.7398666731        0.2929598391    
AX        -1.112529893         1.084878834       -0.6595246290    
AX       -0.2201109280       -0.6124311666         1.173531767    
AX        0.4277444491        0.4278671845        -1.384420143    
AX       -0.3397321041         1.544876596        0.9694933617    
AX        0.5343135251        0.1065840747       -0.3479690820    
AX       -0.4537071563        0.2389484822       -0.7517025783    
AX       -0.1880862434        0.7720702300        0.1566396919    
AX       -0.5039744510       -0.2699072999        0.1786311186    
AX        0.4424671682        0.9744929761E-01    0.7085122627    
AX        0.3919582985       -0.8294886818        0.2234186096    
    38
Energy=    -170.707487709435    
AX        0.4154171266        0.8113029458E-01     1.792167430    
AX         1.104515853       -0.9540440325       -0.5931466188    
AX         1.383727513        0.2095113470         1.252198617    
AX       -0.2037513985E-01     1.254652276       -0.7972260635    
AX         1.436627335        0.4743981346E-01   -0.9142580313    
AX       -0.5530412772        -1.340158367       -0.2040670692E-01
AX        -1.276796948       -0.1609638870        0.9176903253    
AX        0.5047866893         1.583612226        0.1643102349    
AX        -1.188578553        0.9540391389        0.5013409079    
AX        0.1139795633        -1.640245964        0.8497939830    
AX        -1.394529236        0.2049111889        -1.317595278    
AX       -0.5692047109        0.8440328567        -1.661049177    
AX       -0.4381435295        0.4789066985         1.191243306    
AX        -1.035174619       -0.6946618295       -0.8044910501    
AX       -0.3919950547       -0.2900610236        -1.686572533    
AX        0.4096767919        -1.774116716       -0.3093137955    
AX        -1.428177959        0.1493433036       -0.1962068042    
AX         1.038781079         1.063851069       -0.7192477680    
AX       -0.5906475239         1.808583984       -0.4256020864E-01
AX         1.368326709       -0.3445808452        0.2735464484    
AX        -1.002730377        -1.317580690        0.9826019704    
AX        0.5982651754         1.039493600         1.176420444    
AX        0.8701168933       -0.7905476973         1.207052915    
AX        0.7506407131       -0.5839055465        -1.571154536    
AX        -1.547790917       -0.8855937014        0.1380653460    
AX        0.3318016476E-01   -0.7651864273       -0.7770508269    
AX         1.226989243        -1.481227594        0.4075029435    
AX         1.207785618        0.7394305052        0.2922824348    
AX        -1.112534576         1.084586482       -0.6605254005    
AX       -0.2194766368       -0.6115174087         1.174158193    
AX        0.4271085150        0.4300626260        -1.386642559    
AX       -0.3400458081         1.544944325        0.9699249278    
AX        0.5328101098        0.1075445344       -0.3475168003    
AX       -0.4541347974        0.2393270297       -0.7523320701    
AX       -0.1904909612        0.7716893581        0.1575098701    
AX       -0.5034553591       -0.2708185254        0.1779837223    
AX        0.4427023247        0.9783966626E-01    0.7093127437    
AX        0.3918865674       -0.8297220684        0.2221894663    
    38
Energy=    -170.687958016673    
AX        0.4188012419        0.8656903684E-01     1.775903685    
AX         1.113063469       -0.9731121559       -0.5798417718    
AX         1.386507109        0.2102929639         1.238200810    
AX       -0.3971266778E-01     1.274813847       -0.8066922316    
AX         1.513050183        0.5282397475E-01   -0.7765058286    
AX       -0.5567721724        -1.344209277       -0.1789208553E-01
AX        -1.270780961       -0.1633195627        0.9153798502    
AX        0.5140452139         1.579478868        0.1488868721    
AX        -1.179900867        0.9553543653        0.4987875529    
AX        0.1109467969        -1.642368921        0.8526531001    
AX        -1.415440451        0.1992740183        -1.307100414    
AX       -0.6137404312        0.8581267412        -1.658195245    
AX       -0.4305385163        0.4790447197         1.176750918    
AX        -1.036203068       -0.6951671046       -0.8000469642    
AX       -0.3961446080       -0.2851606185        -1.687299456    
AX        0.4039998408        -1.786512523       -0.3059646256    
AX        -1.433784042        0.1463810668       -0.1891045209    
AX         1.021727083         1.058186017       -0.7396943283    
AX       -0.5951759646         1.812995376       -0.3837738637E-01
AX         1.370131691       -0.3652590780        0.2835920755    
AX        -1.003627449        -1.319591866        0.9869480007    
AX        0.6141061800         1.036378946         1.150022634    
AX        0.8657377525       -0.7904461966         1.205631457    
AX        0.8001291842       -0.5111452611        -1.511588852    
AX        -1.550783120       -0.8901889734        0.1412036650    
AX        0.3039874615E-01   -0.7842625858       -0.7882256845    
AX         1.214353069        -1.498238500        0.4208679119    
AX         1.215424741        0.7178857569        0.2590371325    
AX        -1.126327960         1.086345295       -0.6509229555    
AX       -0.2196124584       -0.6103735525         1.164422390    
AX        0.3908012788        0.4700275306        -1.409675782    
AX       -0.3256056366         1.543837873        0.9653230831    
AX        0.5265257408        0.9157521710E-01   -0.3760059949    
AX       -0.4641311844        0.2434487045       -0.7586595617    
AX       -0.1842274643        0.7719128816        0.1437185943    
AX       -0.5023269693       -0.2711774677        0.1686539496    
AX        0.4458361732        0.9346672384E-01    0.6888402390    
AX        0.3892504999       -0.8376862798        0.2169697684    
    38
Energy=    -170.695487069137    
AX        0.4176639134        0.8911248480E-01     1.766233187    
AX         1.127561196       -0.9861170864       -0.5653734441    
AX         1.386305562        0.2101498396         1.236491163    
AX       -0.5220256439E-01     1.288617324       -0.8146514740    
AX         1.552621364        0.5846255381E-01   -0.7098635715    
AX       -0.5568911219        -1.346121997       -0.1691495212E-01
AX        -1.264897048       -0.1655093088        0.9117649012    
AX        0.5230774783         1.577034576        0.1359541188    
AX        -1.172231914        0.9570102898        0.4965598584    
AX        0.1077337758        -1.643373144        0.8540804227    
AX        -1.429788809        0.1946802809        -1.297566627    
AX       -0.6528147525        0.8738051759        -1.655700353    
AX       -0.4247023001        0.4796337962         1.165732562    
AX        -1.032401008       -0.6939253956       -0.7958719098    
AX       -0.4106014590       -0.2836122478        -1.687640178    
AX        0.4033025183        -1.794332146       -0.3043140452    
AX        -1.434928994        0.1448045810       -0.1839633620    
AX         1.006610441         1.040223567       -0.7534467942    
AX       -0.5961348675         1.816767039       -0.3698499328E-01
AX         1.374899503       -0.3837777880        0.3030851625    
AX        -1.004942739        -1.322518804        0.9882108446    
AX        0.6221751221         1.033382027         1.133225975    
AX        0.8585256866       -0.7934238487         1.209771728    
AX        0.8349610656       -0.4488466303        -1.452725070    
AX        -1.551785686       -0.8936920066        0.1414852895    
AX        0.3371205024E-01   -0.7992458051       -0.7975264856    
AX         1.204719393        -1.512736121        0.4350566904    
AX         1.222159903        0.7030695094        0.2433789728    
AX        -1.134969934         1.087974082       -0.6434442022    
AX       -0.2216137035       -0.6094579133         1.156203431    
AX        0.3556597231        0.4994671819        -1.441622038    
AX       -0.3158410368         1.544602677        0.9611425301    
AX        0.5288632609        0.7995015152E-01   -0.3981051995    
AX       -0.4676882971        0.2494386288       -0.7642136416    
AX       -0.1766891347        0.7729125618        0.1336018504    
AX       -0.4982602794       -0.2705928204        0.1600352632    
AX        0.4490806258        0.8951461160E-01    0.6756800224    
AX        0.3897530676       -0.8433298753        0.2122343693    
    38
Energy=    -170.695492190275    
AX        0.4176288829        0.8919648434E-01     1.766235515    
AX         1.127696089       -0.9860633747       -0.5652784046    
AX         1.386282775        0.2102248485         1.236578560    
AX       -0.5214039053E-01     1.288507216       -0.8146839004    
AX         1.552723063        0.5839104505E-01   -0.7096320739    
AX       -0.5568171652        -1.346082142       -0.1704456044E-01
AX        -1.264940720       -0.1655546851        0.9117681721    
AX        0.5231410790         1.577017821        0.1358833476    
AX        -1.172240773        0.9570913075        0.4965533701    
AX        0.1077609032        -1.643338731        0.8539900761    
AX        -1.429908704        0.1947439138        -1.297452491    
AX       -0.6529040550        0.8738200354        -1.655646491    
AX       -0.4247460601        0.4796477033         1.165698089    
AX        -1.032412748       -0.6939194948       -0.7958764823    
AX       -0.4111129568       -0.2835954555        -1.687666606    
AX        0.4033531898        -1.794208709       -0.3045610812    
AX        -1.434942299        0.1447957847       -0.1838885332    
AX         1.006637558         1.040038631       -0.7535670637    
AX       -0.5959958999         1.816788585       -0.3702266463E-01
AX         1.374961882       -0.3838131399        0.3032756511    
AX        -1.004825869        -1.322607821        0.9881077663    
AX        0.6221401709         1.033429969         1.133172961    
AX        0.8584694265       -0.7934306896         1.209804262    
AX        0.8353038329       -0.4488645089        -1.452691790    
AX        -1.551761695       -0.8937592968        0.1414683119    
AX        0.3377292992E-01   -0.7991290995       -0.7976730443    
AX         1.204626345        -1.512809029        0.4350797935    
AX         1.222168715        0.7030549839        0.2433627766    
AX        -1.134948316         1.087988402       -0.6433660022    
AX       -0.2216295158       -0.6094275339         1.156237622    
AX        0.3555092764        0.4992116948        -1.441657974    
AX       -0.3158793786         1.544650768        0.9611709345    
AX        0.5288752394        0.7997971743E-01   -0.3980858598    
AX       -0.4677424095        0.2494240092       -0.7641705173    
AX       -0.1766821279        0.7729331757        0.1336281774    
AX       -0.4982479766       -0.2705869211        0.1600822890    
AX        0.4490747992        0.8952708086E-01    0.6757135529    
AX        0.3897529037       -0.8432725450        0.2121543116    
