    38
Energy=    -170.549769551157    
AX       -0.9343541301E-01     1.015654087         1.582093720    
AX         1.191614726       -0.9013208906        -1.009747880    
AX         1.549818791       -0.4396819899         1.122273793    
AX       -0.1623835785         1.580812422       -0.6303355388    
AX         1.460065547        0.2056845018       -0.8140796878    
AX       -0.5530476380        -1.301076210       -0.2644483912    
AX        -1.406309504       -0.1458647070        0.8299636368    
AX        0.7190868202         1.252511635       -0.4905085402E-01
AX       -0.8576401109        0.7735745985        0.8113624743    
AX       -0.4542651214E-01    -1.225879764        0.7494103291    
AX        -1.278834758        0.1067183609        -1.112178605    
AX       -0.3063504139        0.6310960706        -1.295250319    
AX       -0.2683067463       -0.1033616842         1.360762804    
AX        -1.070146443        -1.012276471        -1.194901469    
AX       -0.4710243267       -0.3315782755        -1.818872942    
AX        0.3360505892        -1.936828985       -0.3228299987E-01
AX        -1.537275353        0.5272536236       -0.7120252841E-01
AX        0.6985744555        0.9607892963        -1.091883663    
AX        -1.094024961         1.552015582        0.6914271593E-01
AX         1.437923794       -0.5162655145        0.2238819855E-02
AX        -1.125698189        -1.177886462        0.6620154052    
AX        0.8530481591         1.330298721         1.059227875    
AX        0.5892339961       -0.8381744168         1.607709655    
AX        0.5149452902       -0.1191541709        -1.347806112    
AX        -1.348475967       -0.5400575175       -0.2252146415    
AX        0.7071339407E-01    -1.163590111        -1.232712189    
AX         1.041088963        -1.340003446        0.6274108989    
AX         1.275530456        0.4635103853        0.4759206980    
AX        -1.179814059         1.181496860       -0.9411202037    
AX        0.5833005948       -0.3570879951        0.6577930805    
AX        0.5070673784        0.1908817595       -0.3018949042    
AX       -0.1283843805         1.617268840        0.5574328376    
AX        0.1763734716        0.5970690021        0.6278250715    
AX       -0.3652300247       -0.3087870054       -0.7298961409    
AX       -0.4830522290        0.6499046464       -0.2212624367    
AX       -0.4396400403       -0.2945168813        0.3211277783    
AX        0.7805080048        0.2969865158         1.501618663    
AX        0.4295562197       -0.8801344111       -0.2411887503    
    38
Energy=    -170.549498817230    
AX       -0.9406879168E-01     1.013786379         1.583344020    
AX         1.191689826       -0.9023506051        -1.009514313    
AX         1.550442452       -0.4398426352         1.121168534    
AX       -0.1625202691         1.582109707       -0.6310729134    
AX         1.460320260        0.2052523462       -0.8166955979    
AX       -0.5534294421        -1.300676905       -0.2638478718    
AX        -1.407622427       -0.1450871897        0.8294770144    
AX        0.7178942350         1.252881051       -0.4829813607E-01
AX       -0.8575527309        0.7735299594        0.8109417742    
AX       -0.4549164852E-01    -1.225124114        0.7494057452    
AX        -1.279042082        0.1060950579        -1.113015711    
AX       -0.3065238945        0.6304211962        -1.296097671    
AX       -0.2676459239       -0.1044513384         1.361002130    
AX        -1.070073104        -1.012639358        -1.194475155    
AX       -0.4707190973       -0.3327425356        -1.818779667    
AX        0.3347926781        -1.936784561       -0.3183826246E-01
AX        -1.535528321        0.5272250195       -0.7231756237E-01
AX        0.6977755348        0.9603263642        -1.091008144    
AX        -1.093707723         1.552070715        0.6846457059E-01
AX         1.437394147       -0.5143503563        0.1379997616E-02
AX        -1.125762605        -1.176850329        0.6626746966    
AX        0.8521779687         1.330510740         1.060724267    
AX        0.5903079351       -0.8390661609         1.607138759    
AX        0.5148367419       -0.1199717046        -1.347315410    
AX        -1.348921474       -0.5401613275       -0.2252911966    
AX        0.7069843044E-01    -1.163953337        -1.232152880    
AX         1.041314000        -1.339414382        0.6254864839    
AX         1.275535052        0.4645743876        0.4771532642    
AX        -1.179289586         1.181112752       -0.9417589136    
AX        0.5833341456       -0.3568052200        0.6578307364    
AX        0.5081827922        0.1906810799       -0.3014104576    
AX       -0.1290480903         1.617436877        0.5587759610    
AX        0.1764905461        0.5971435796        0.6285698502    
AX       -0.3652388749       -0.3085337709       -0.7295736430    
AX       -0.4812344145        0.6509033775       -0.2215006577    
AX       -0.4402054770       -0.2935317173        0.3213115868    
AX        0.7810293940        0.2963809380         1.502190774    
AX        0.4294098399       -0.8801039797       -0.2410759985    
    38
Energy=    -170.548998329643    
AX       -0.9427975438E-01     1.013171461         1.583560616    
AX         1.190595395       -0.9041593697        -1.009220550    
AX         1.550618380       -0.4394340621         1.121129590    
AX       -0.1625765035         1.583524085       -0.6303598785    
AX         1.460253672        0.2039270368       -0.8196717514    
AX       -0.5536429511        -1.300237276       -0.2634086402    
AX        -1.409713540       -0.1451120334        0.8281217140    
AX        0.7178720577         1.253829331       -0.4749320457E-01
AX       -0.8573793983        0.7722761061        0.8106454929    
AX       -0.4536419675E-01    -1.224694544        0.7497606841    
AX        -1.278625101        0.1056731231        -1.114005617    
AX       -0.3061295280        0.6305358809        -1.296617391    
AX       -0.2671521584       -0.1056450722         1.361602367    
AX        -1.070216096        -1.013228454        -1.194578041    
AX       -0.4703741848       -0.3335057505        -1.818522941    
AX        0.3345323305        -1.936257329       -0.3186094372E-01
AX        -1.534854112        0.5270137479       -0.7356177052E-01
AX        0.6977639528        0.9611818240        -1.090297838    
AX        -1.093870917         1.551822459        0.6873273343E-01
AX         1.437299192       -0.5132262898        0.8296724210E-03
AX        -1.125580790        -1.176329589        0.6632174668    
AX        0.8518120649         1.330736059         1.061338280    
AX        0.5918564274       -0.8395564018         1.606976272    
AX        0.5147678762       -0.1205236117        -1.346846299    
AX        -1.348992287       -0.5403675342       -0.2258189047    
AX        0.6918335240E-01    -1.164658213        -1.231140322    
AX         1.041647128        -1.339165359        0.6248500239    
AX         1.275516165        0.4652130483        0.4777129365    
AX        -1.178504610         1.180843967       -0.9417524465    
AX        0.5834946868       -0.3565818474        0.6578348047    
AX        0.5091360347        0.1913155829       -0.3013288690    
AX       -0.1295177388         1.616823357        0.5593756096    
AX        0.1767195070        0.5971194551        0.6286992817    
AX       -0.3655094244       -0.3080693335       -0.7291939724    
AX       -0.4800365750        0.6518419116       -0.2220194972    
AX       -0.4407401642       -0.2929083294        0.3217517650    
AX        0.7809716323        0.2963110427         1.502420624    
AX        0.4290201760       -0.8794990803       -0.2408610551    
    38
Energy=    -169.090593727492    
AX       -0.1047259675         1.007322744         1.602932684    
AX         1.081119382       -0.9613553648       -0.8588164789    
AX         1.592312608       -0.3993395990         1.159540783    
AX       -0.1539004066         1.639356309       -0.7127897414    
AX         1.465907214        0.1334859009       -0.8711831872    
AX       -0.6093382390        -1.409290076       -0.2892847453    
AX        -1.485485006       -0.1424226375        0.7978477722    
AX        0.6682191233         1.250539992       -0.4176524568E-01
AX       -0.8447625465        0.7385990845        0.8062156332    
AX       -0.5045251377E-01    -1.157212051        0.8543629402    
AX        -1.318814711        0.9078103246E-01    -1.176137562    
AX       -0.3153480513        0.6298998082        -1.329163662    
AX       -0.2301368282       -0.1164960308         1.397175693    
AX        -1.088201778        -1.017755883        -1.217803034    
AX       -0.4756291779       -0.3425230551        -1.822849686    
AX        0.4667859144        -1.861874797       -0.4289452877    
AX        -1.394544413        0.4719733403       -0.1271214167    
AX        0.6875596789        0.9172732942        -1.069596526    
AX        -1.073552941         1.528451897        0.5500337121E-01
AX         1.458386534       -0.4772270810        0.3537191835E-01
AX        -1.102969661        -1.156190173        0.6612508942    
AX        0.8384938708         1.359686310         1.077129634    
AX        0.6497338558       -0.7872824578         1.683926115    
AX        0.4909851266       -0.1540750762        -1.311250793    
AX        -1.354534503       -0.6012555096       -0.2415959245    
AX        0.2172365569E-01    -1.152380764        -1.186959187    
AX        0.9889630963        -1.360504286        0.4935581409    
AX         1.288336218        0.5051451215        0.5166754947    
AX        -1.166751735         1.170044492       -0.9583084519    
AX        0.6171761845       -0.3726063595        0.7059999231    
AX        0.5564360686        0.1687075888       -0.2699502184    
AX       -0.1451538959         1.601654573        0.5987898787    
AX        0.2011161781        0.5915865079        0.6650222445    
AX       -0.4161825656       -0.2687078532       -0.7035664242    
AX       -0.3571411221        0.7170144474       -0.2326661809    
AX       -0.4697697735       -0.2501163479        0.3455383632    
AX        0.8072118467        0.3311290858         1.539202593    
AX        0.2769292799       -0.8640361272       -0.1457903225    
    38
Energy=    -169.041564210383    
AX       -0.1046771978         1.000523622         1.602894021    
AX         1.020882417       -0.9285003175       -0.7672785691    
AX         1.595874321       -0.3783949086         1.176056945    
AX       -0.1503571008         1.660848467       -0.7218841970    
AX         1.459833871        0.1366657850       -0.8572308634    
AX       -0.6652682690        -1.492481453       -0.3501452803    
AX        -1.484589024       -0.1505110981        0.7929321017    
AX        0.6690254515         1.251591822       -0.3745506517E-01
AX       -0.8462434039        0.7453129964        0.8090132453    
AX        0.1187565794E-01    -1.211840443        0.9361123701    
AX        -1.320605324        0.9436768517E-01    -1.184717250    
AX       -0.3231007810        0.6326076055        -1.351374643    
AX       -0.2269596081       -0.1302690731         1.385178644    
AX        -1.098588984        -1.007608695        -1.239852129    
AX       -0.4753943082       -0.3417481388        -1.833996430    
AX        0.4419776707        -1.872669534       -0.4418409122    
AX        -1.361899880        0.4608196134       -0.1293852818    
AX        0.6698665798        0.9037454072        -1.047317012    
AX        -1.065080735         1.528647655        0.5039032615E-01
AX         1.511892398       -0.4529619684        0.6866381903E-01
AX        -1.016096766        -1.131639039        0.6414191957    
AX        0.8377920855         1.362475445         1.080163683    
AX        0.6691325045       -0.7581854800         1.714085585    
AX        0.4877304408       -0.1481404982        -1.331297360    
AX        -1.344509173       -0.6069932489       -0.2544507459    
AX        0.8575971884E-02    -1.145563634        -1.181999929    
AX         1.006219206        -1.363853245        0.4181566638    
AX         1.280853966        0.5077608238        0.5138377769    
AX        -1.163003762         1.173945323       -0.9618399676    
AX        0.6269358476       -0.3707422344        0.7034511180    
AX        0.5504825789        0.1127406979       -0.2648082342    
AX       -0.1440236365         1.602273303        0.6054661591    
AX        0.2019603062        0.5825337315        0.6606481634    
AX       -0.4184413894       -0.2527082931       -0.7236391800    
AX       -0.3359030352        0.7346710881       -0.2473247707    
AX       -0.4883635399       -0.1925833000        0.3417211409    
AX        0.8048855856        0.3362306550         1.534209066    
AX        0.1773090600       -0.8903671224       -0.1065622036    
    38
Energy=    -169.043370435409    
AX       -0.1046829043         1.000079239         1.602886247    
AX         1.016631746       -0.9259890113       -0.7612355360    
AX         1.596148379       -0.3769914724         1.177218430    
AX       -0.1501305445         1.662318676       -0.7224962685    
AX         1.459354453        0.1367707350       -0.8561818221    
AX       -0.6686885872        -1.497381260       -0.3537172416    
AX        -1.484500596       -0.1512583113        0.7926076984    
AX        0.6691787880         1.252107210       -0.3701986507E-01
AX       -0.8465565891        0.7461118942        0.8095034479    
AX        0.1633652338E-01    -1.215377793        0.9407597367    
AX        -1.320793054        0.9466536463E-01    -1.185315143    
AX       -0.3235681606        0.6328650355        -1.352885876    
AX       -0.2267437697       -0.1312714593         1.384273306    
AX        -1.099258214        -1.006993501        -1.241232811    
AX       -0.4753858157       -0.3416962167        -1.834806499    
AX        0.4401107801        -1.873040217       -0.4426367989    
AX        -1.359995045        0.4603551245       -0.1297565010    
AX        0.6685806904        0.9027677021        -1.045849972    
AX        -1.064494376         1.528641317        0.5008140300E-01
AX         1.515316766       -0.4518233645        0.7039652015E-01
AX        -1.009437246        -1.130113831        0.6395018370    
AX        0.8377366793         1.362657611         1.080359057    
AX        0.6704179029       -0.7562383651         1.716121764    
AX        0.4877532171       -0.1480356428        -1.332393442    
AX        -1.343614897       -0.6076690195       -0.2551231018    
AX        0.7693713298E-02    -1.145119325        -1.181448453    
AX         1.006547716        -1.363351483        0.4132238155    
AX         1.280431595        0.5079827461        0.5136580382    
AX        -1.162742150         1.174181416       -0.9620604099    
AX        0.6272485278       -0.3718507269        0.7033248751    
AX        0.5497084715        0.1095155286       -0.2645851378    
AX       -0.1439378979         1.602288078        0.6059118885    
AX        0.2021578649        0.5823439635        0.6604065083    
AX       -0.4183539134       -0.2518993887       -0.7243927568    
AX       -0.3342405200        0.7357755695       -0.2485761086    
AX       -0.4893946036       -0.1890606565        0.3407456696    
AX        0.8047451504        0.3367079752         1.533927352    
AX        0.1704199204       -0.8929741403       -0.1031938492    
    38
Energy=    -169.497133754304    
AX       -0.1159034130         1.030215411         1.590254444    
AX        0.9569381762       -0.8833432353       -0.7154102025    
AX         1.510657330       -0.4575720863         1.184722656    
AX       -0.1131057180         1.773497901       -0.5949489502    
AX         1.418911894        0.1835018492       -0.8718746802    
AX       -0.7086918189        -1.585471795       -0.3548586268    
AX        -1.405133421       -0.1578098822        0.8228576807    
AX        0.7409915832         1.250077892       -0.2356231693E-01
AX       -0.8402035916        0.7897060785        0.7963199939    
AX        0.1883147031        -1.423459362        0.9350546847    
AX        -1.335415361        0.8490836560E-01    -1.189960155    
AX       -0.3596484179        0.5935760256        -1.447434922    
AX       -0.3052525509       -0.8819066875E-01     1.352268855    
AX        -1.118982760        -1.019190223        -1.211127069    
AX       -0.4903782964       -0.4090962974        -1.853792806    
AX        0.4246118550        -1.885376303       -0.4251733664    
AX        -1.319540907        0.4568877579       -0.1422866113    
AX        0.5712095386        0.9008817024        -1.016575534    
AX        -1.058276671         1.545975262        0.3651112522E-01
AX         1.529747403       -0.3900200396        0.6243525494E-01
AX       -0.7858513921        -1.067400137        0.6582275497    
AX        0.8367069678         1.373359871         1.106045665    
AX        0.5415192143       -0.7461878088         1.739986834    
AX        0.4739169182       -0.1488435418        -1.362469317    
AX        -1.292518212       -0.6292074553       -0.2121717244    
AX       -0.1548577271E-01    -1.164824642        -1.160096656    
AX         1.063441094        -1.322597523        0.3137655105    
AX         1.276845632        0.4968852119        0.5852478804    
AX        -1.116704331         1.179041929       -0.9717363410    
AX        0.5567698190       -0.3991515199        0.7088277801    
AX        0.5340753794        0.7430614184E-01   -0.2571884496    
AX       -0.1142393837         1.626169093        0.5606194196    
AX        0.2118195641        0.6081127600        0.6498361496    
AX       -0.4154508621       -0.2425280321       -0.7522283579    
AX       -0.2965214039        0.7731620069       -0.3049059934    
AX       -0.4666974366       -0.1077762318        0.2921385923    
AX        0.7527122565        0.3196872250         1.546649656    
AX        0.8481239400E-01   -0.9319056989       -0.7396765030E-01
    38
Energy=    -169.497147140591    
AX       -0.1161668694         1.029776625         1.590451327    
AX        0.9569904626       -0.8833986225       -0.7154828779    
AX         1.510717211       -0.4576680426         1.184716673    
AX       -0.1127855851         1.773661413       -0.5949319441    
AX         1.418728469        0.1833188689       -0.8722648392    
AX       -0.7085948040        -1.585375460       -0.3544761326    
AX        -1.405191849       -0.1575830354        0.8227789433    
AX        0.7411174664         1.249899037       -0.2352117552E-01
AX       -0.8402219455        0.7898449591        0.7961657209    
AX        0.1885599134        -1.423773698        0.9346341550    
AX        -1.335469440        0.8491860739E-01    -1.190246349    
AX       -0.3596302465        0.5934938560        -1.447661614    
AX       -0.3053064489       -0.8858843652E-01     1.352138602    
AX        -1.119079565        -1.019283357        -1.210873666    
AX       -0.4906007037       -0.4092704146        -1.853765540    
AX        0.4246260602        -1.885284387       -0.4248676316    
AX        -1.319492797        0.4569123898       -0.1425333620    
AX        0.5711471949        0.9008870708        -1.016640814    
AX        -1.058150102         1.546089416        0.3630008967E-01
AX         1.529428482       -0.3895907961        0.6238639379E-01
AX       -0.7855564302        -1.067011700        0.6586196850    
AX        0.8363857861         1.373414134         1.106372515    
AX        0.5416481830       -0.7466310891         1.739770756    
AX        0.4737170362       -0.1489776323        -1.362470454    
AX        -1.292509441       -0.6292489673       -0.2119446563    
AX       -0.1558590885E-01    -1.164857945        -1.159954275    
AX         1.063783292        -1.322454150        0.3136948200    
AX         1.276915635        0.4970752087        0.5857955449    
AX        -1.116563181         1.179052844       -0.9719209854    
AX        0.5568362906       -0.3991293470        0.7088161025    
AX        0.5340181437        0.7443031768E-01   -0.2572260507    
AX       -0.1141648309         1.626192489        0.5605187975    
AX        0.2118200164        0.6081186618        0.6499394435    
AX       -0.4156217235       -0.2424390797       -0.7522550845    
AX       -0.2964764214        0.7733302302       -0.3049535782    
AX       -0.4667012387       -0.1075934436        0.2920375564    
AX        0.7525180951        0.3194386815         1.546858917    
AX        0.8491179546E-01   -0.9316952060       -0.7400501233E-01
