    38
Energy=    -169.673937705203    
AX        0.4987867476        0.5701494127E-01     1.834707202    
AX         1.169887736        -1.012612575       -0.5951359689    
AX         1.414775283        0.1966895039         1.232624303    
AX       -0.1059062057         1.110725960       -0.7290246668    
AX         1.374155188        0.4869774453E-01   -0.7781702671    
AX       -0.5392604338        -1.314074330       -0.1662293211    
AX        -1.209689558       -0.4743929864E-01    0.9400812151    
AX        0.4511749548         1.503704320        0.1459789128    
AX        -1.215060541         1.062296475        0.8630453072    
AX        0.2096640901E-01    -1.582559677        0.7962968008    
AX        -1.595376774        0.5347950824E-01    -1.039009764    
AX       -0.5535447868        0.7051490778        -1.719117802    
AX       -0.3635615461        0.5402949868         1.355155774    
AX       -0.9520575631       -0.8539864480        -1.074683123    
AX       -0.2617170851       -0.3683423779        -1.785588338    
AX        0.4283050746        -1.783084853       -0.3194427066    
AX        -1.278256604        0.4625247841       -0.4300928986E-01
AX        0.9863099035         1.083977027       -0.7408830621    
AX       -0.8037198456         1.622288640       -0.2365483070E-01
AX         1.381599522       -0.3632639387        0.2772885326    
AX        -1.039320110        -1.130779434        0.7743620354    
AX        0.6405270521         1.040979975         1.176005597    
AX        0.8560281230       -0.8098061649         1.199610532    
AX        0.8876344670       -0.5995273771        -1.591650284    
AX        -1.455336738       -0.6145688345       -0.1236502417    
AX        0.1216487456       -0.7300903291       -0.8277862771    
AX         1.223338133        -1.503972328        0.4204511213    
AX         1.210390802        0.7122659906        0.2619359932    
AX        -1.191087625         1.089072059       -0.9199536364    
AX       -0.2328117191       -0.5757575530         1.240104699    
AX        0.4272603033        0.3578620212        -1.353666106    
AX       -0.2762772113         1.613570479        0.9767557369    
AX        0.4246027185        0.1847292774       -0.3005349725    
AX       -0.5448179041        0.1299729922       -0.7892102482    
AX       -0.2888156191        0.7406814431        0.2965617333    
AX       -0.4777250810       -0.2959198489        0.1969527519    
AX        0.4428409755        0.8866151554E-01    0.7461551524    
AX        0.4241108127       -0.8188533547        0.1863275052    
    38
Energy=    -169.673937704863    
AX        0.4987861877        0.5701403980E-01     1.834707662    
AX         1.169887480        -1.012612719       -0.5951359059    
AX         1.414775081        0.1966886690         1.232625149    
AX       -0.1059060921         1.110726301       -0.7290251082    
AX         1.374154280        0.4869707532E-01   -0.7781713377    
AX       -0.5392600743        -1.314074108       -0.1662292720    
AX        -1.209689537       -0.4743916997E-01    0.9400812463    
AX        0.4511748602         1.503704027        0.1459784035    
AX        -1.215060380         1.062296721        0.8630455165    
AX        0.2096731682E-01    -1.582560205        0.7962962929    
AX        -1.595376459        0.5347934199E-01    -1.039010155    
AX       -0.5535446886        0.7051497245        -1.719117929    
AX       -0.3635614032        0.5402950420         1.355155785    
AX       -0.9520571783       -0.8539865236        -1.074683085    
AX       -0.2617179186       -0.3683419952        -1.785588628    
AX        0.4283054135        -1.783084949       -0.3194415849    
AX        -1.278257101        0.4625249123       -0.4300925932E-01
AX        0.9863102601         1.083976532       -0.7408832124    
AX       -0.8037200964         1.622288372       -0.2365513615E-01
AX         1.381599570       -0.3632634581        0.2772884976    
AX        -1.039319936        -1.130779590        0.7743620157    
AX        0.6405272209         1.040980086         1.176006047    
AX        0.8560277100       -0.8098066147         1.199610857    
AX        0.8876338123       -0.5995281328        -1.591650946    
AX        -1.455336533       -0.6145689721       -0.1236504004    
AX        0.1216488520       -0.7300894055       -0.8277862310    
AX         1.223338741        -1.503971628        0.4204514051    
AX         1.210390943        0.7122663298        0.2619366589    
AX        -1.191087677         1.089071949       -0.9199537187    
AX       -0.2328116346       -0.5757577784         1.240104270    
AX        0.4272599511        0.3578614010        -1.353665970    
AX       -0.2762768699         1.613570635        0.9767552193    
AX        0.4246027745        0.1847299552       -0.3005345659    
AX       -0.5448179829        0.1299736292       -0.7892100497    
AX       -0.2888158841        0.7406814051        0.2965616771    
AX       -0.4777251118       -0.2959197123        0.1969526284    
AX        0.4428411441        0.8866171663E-01    0.7461555205    
AX        0.4241109611       -0.8188529044        0.1863276446    
    38
Energy=    -169.673937702337    
AX        0.4987849197        0.5701364809E-01     1.834709104    
AX         1.169888292        -1.012613115       -0.5951360706    
AX         1.414774026        0.1966874561         1.232626139    
AX       -0.1059072200         1.110728416       -0.7290264301    
AX         1.374153483        0.4869660234E-01   -0.7781724368    
AX       -0.5392583316        -1.314074908       -0.1662312929    
AX        -1.209688261       -0.4743904811E-01    0.9400812475    
AX        0.4511756393         1.503703287        0.1459780184    
AX        -1.215058702         1.062297950        0.8630444682    
AX        0.2096630265E-01    -1.582561415        0.7962936252    
AX        -1.595376824        0.5347857418E-01    -1.039009805    
AX       -0.5535457631        0.7051495007        -1.719118199    
AX       -0.3635611488        0.5402955291         1.355155534    
AX       -0.9520563746       -0.8539852322        -1.074681839    
AX       -0.2617188805       -0.3683421339        -1.785588318    
AX        0.4283070600        -1.783085508       -0.3194410262    
AX        -1.278257523        0.4625247821       -0.4300927004E-01
AX        0.9863092391         1.083975555       -0.7408826006    
AX       -0.8037204577         1.622288859       -0.2365691874E-01
AX         1.381600000       -0.3632628334        0.2772881673    
AX        -1.039319092        -1.130779680        0.7743604152    
AX        0.6405275112         1.040979371         1.176007948    
AX        0.8560279891       -0.8098062953         1.199611524    
AX        0.8876325054       -0.5995291003        -1.591651939    
AX        -1.455336883       -0.6145686213       -0.1236497689    
AX        0.1216490932       -0.7300870247       -0.8277852257    
AX         1.223339043        -1.503971740        0.4204528056    
AX         1.210391262        0.7122664361        0.2619383715    
AX        -1.191090037         1.089071486       -0.9199546205    
AX       -0.2328118106       -0.5757592391         1.240105412    
AX        0.4272588884        0.3578606685        -1.353664919    
AX       -0.2762748138         1.613571477        0.9767534350    
AX        0.4246034595        0.1847311519       -0.3005336506    
AX       -0.5448178212        0.1299750090       -0.7892091651    
AX       -0.2888157868        0.7406818057        0.2965605328    
AX       -0.4777247038       -0.2959200419        0.1969528634    
AX        0.4428399339        0.8866130617E-01    0.7461561594    
AX        0.4241117865       -0.8188529365        0.1863277248    
    38
Energy=    -169.673937334527    
AX        0.4987441176        0.5702655312E-01     1.834698332    
AX         1.169879556        -1.012620340       -0.5951665026    
AX         1.414750118        0.1966487996         1.232629505    
AX       -0.1058657916         1.110746377       -0.7290516781    
AX         1.374166244        0.4867669446E-01   -0.7782362463    
AX       -0.5392370107        -1.314080772       -0.1662146725    
AX        -1.209742772       -0.4746046599E-01    0.9400869425    
AX        0.4511626199         1.503714530        0.1459771177    
AX        -1.215075671         1.062307311        0.8629995224    
AX        0.2099047790E-01    -1.582534922        0.7963331988    
AX        -1.595335761        0.5350227682E-01    -1.039009080    
AX       -0.5535848082        0.7051401685        -1.719087301    
AX       -0.3636010260        0.5402822928         1.355110106    
AX       -0.9520481426       -0.8539730917        -1.074657749    
AX       -0.2617374969       -0.3683371149        -1.785593368    
AX        0.4283324868        -1.783108756       -0.3194031303    
AX        -1.278278659        0.4624869865       -0.4299519390E-01
AX        0.9863424748         1.083957652       -0.7408742829    
AX       -0.8036225381         1.622359793       -0.2365144568E-01
AX         1.381575783       -0.3632322434        0.2772457170    
AX        -1.039314367        -1.130801033        0.7743799715    
AX        0.6405019461         1.040962011         1.176020196    
AX        0.8559923173       -0.8098141191         1.199600952    
AX        0.8876144372       -0.5995325819        -1.591690372    
AX        -1.455338359       -0.6145971959       -0.1236300847    
AX        0.1216514143       -0.7300963009       -0.8278031152    
AX         1.223400094        -1.503916820        0.4204327190    
AX         1.210378930        0.7122921359        0.2619689004    
AX        -1.191054957         1.089095669       -0.9198821213    
AX       -0.2328358335       -0.5757440472         1.240132972    
AX        0.4272525428        0.3578577071        -1.353678418    
AX       -0.2762840216         1.613552231        0.9767645451    
AX        0.4246385149        0.1847182692       -0.3005372172    
AX       -0.5447907312        0.1299845240       -0.7891717430    
AX       -0.2888177303        0.7406779051        0.2965089932    
AX       -0.4777355318       -0.2959272466        0.1969875666    
AX        0.4428146988        0.8865003408E-01    0.7461499457    
AX        0.4241124347       -0.8188628716        0.1863065194    
    38
Energy=    -169.662862917546    
AX        0.5036691750        0.5598662825E-01     1.840939967    
AX         1.181349277        -1.014633417       -0.5989622872    
AX         1.414791174        0.1958405461         1.231935057    
AX       -0.1222066604         1.090846249       -0.7230448350    
AX         1.369930605        0.5038281262E-01   -0.7777367822    
AX       -0.5351727915        -1.295305454       -0.1765653887    
AX        -1.219423268       -0.3623474887E-01    0.9500859619    
AX        0.4455595799         1.515936228        0.1400119138    
AX        -1.209216681         1.070230345        0.8693883102    
AX        0.1189296967E-01    -1.568843950        0.7918562403    
AX        -1.574043459        0.6897405057E-01    -1.065245369    
AX       -0.5984224426        0.6570484471        -1.697983108    
AX       -0.3632322140        0.5403700911         1.365503394    
AX       -0.9472473731       -0.8647668486        -1.102023741    
AX       -0.2473402177       -0.3908472490        -1.804883025    
AX        0.4273414153        -1.779705594       -0.3299279798    
AX        -1.265563555        0.4747751958       -0.4110251067E-01
AX        0.9701014594         1.079600663       -0.7438148856    
AX       -0.7940445595         1.626414885       -0.1567078412E-01
AX         1.382127592       -0.3617782816        0.2768927596    
AX        -1.042743715        -1.115755963        0.7643254896    
AX        0.6364919317         1.038688983         1.171954308    
AX        0.8500228311       -0.8173903093         1.197907030    
AX        0.9075995344       -0.5933959221        -1.599757390    
AX        -1.433717364       -0.5971336542       -0.1506792309    
AX        0.1375136112       -0.7380704422       -0.8443874913    
AX         1.221420599        -1.505781819        0.4157466143    
AX         1.200436677        0.7143784509        0.2618382034    
AX        -1.204481956         1.110703297       -0.9125771532    
AX       -0.2398313329       -0.5751021449         1.265303950    
AX        0.4104870254        0.3453079432        -1.349815158    
AX       -0.2720113702         1.622115114        0.9855779698    
AX        0.4229827992        0.1798771426       -0.2944436509    
AX       -0.5428776054        0.9941372098E-01   -0.7691633583    
AX       -0.2782791213        0.7459859025        0.3111128305    
AX       -0.4729402716       -0.2907040754        0.2276373510    
AX        0.4417511295        0.8017810054E-01    0.7542920797    
AX        0.4273265716       -0.8176049226        0.1754746973    
    38
Energy=    -169.662332905412    
AX        0.5046270544        0.5548628044E-01     1.841983067    
AX         1.183271035        -1.014838517       -0.5994262185    
AX         1.415004557        0.1960686674         1.231895701    
AX       -0.1255511788         1.087025355       -0.7216216121    
AX         1.369420851        0.5084296388E-01   -0.7777805714    
AX       -0.5346491439        -1.292209136       -0.1779152771    
AX        -1.221299904       -0.3444390268E-01    0.9506216472    
AX        0.4445741206         1.518714532        0.1388487464    
AX        -1.208222330         1.071200851        0.8709596252    
AX        0.1039067353E-01    -1.567193408        0.7910998539    
AX        -1.569765568        0.7253683366E-01    -1.070391844    
AX       -0.6063045374        0.6488023608        -1.694170139    
AX       -0.3632952603        0.5397334042         1.367426257    
AX       -0.9469056339       -0.8668839420        -1.106196316    
AX       -0.2452765850       -0.3949038834        -1.807693929    
AX        0.4271524082        -1.779217798       -0.3314329566    
AX        -1.262142551        0.4783993681       -0.4164370311E-01
AX        0.9667735731         1.078892577       -0.7443170672    
AX       -0.7933531962         1.625947988       -0.1416005775E-01
AX         1.382163001       -0.3612736565        0.2768651049    
AX        -1.043535250        -1.113373984        0.7627080467    
AX        0.6353261642         1.038304651         1.171078019    
AX        0.8495239794       -0.8187704419         1.197789974    
AX        0.9107952960       -0.5925008148        -1.600965375    
AX        -1.429939941       -0.5926814208       -0.1548341294    
AX        0.1400780694       -0.7401929965       -0.8469791820    
AX         1.221446647        -1.506125818        0.4149741357    
AX         1.198522103        0.7150511315        0.2617985842    
AX        -1.207741884         1.115930737       -0.9125692510    
AX       -0.2407542879       -0.5754004181         1.268974832    
AX        0.4076341715        0.3431605072        -1.349200278    
AX       -0.2715942664         1.623666326        0.9870802483    
AX        0.4229158742        0.1784318609       -0.2933919859    
AX       -0.5421246420        0.9376934224E-01   -0.7661270914    
AX       -0.2755302402        0.7469299836        0.3142753712    
AX       -0.4715913514       -0.2896071577        0.2326971647    
AX        0.4419847738        0.7844539352E-01    0.7557514260    
AX        0.4279733995       -0.8177238206        0.1739891800    
    38
Energy=    -169.741979951537    
AX        0.5180683312        0.3402209867E-01     1.856460976    
AX         1.229499201        -1.017302348       -0.5897967863    
AX         1.421745418        0.2297028275         1.237138305    
AX       -0.2080871773        0.9852061466       -0.6803338455    
AX         1.357846133        0.6510084131E-01   -0.7621739643    
AX       -0.5215147181        -1.227754577       -0.2102290423    
AX        -1.258254422       -0.1672707039E-01    0.9216688709    
AX        0.4162224231         1.594458247        0.1043168827    
AX        -1.172662260         1.076123030        0.8712978669    
AX       -0.5037839435E-02    -1.562194655        0.7665666460    
AX        -1.535703912        0.1252349362        -1.086092885    
AX       -0.6573882168        0.6011423601        -1.631041247    
AX       -0.3761447565        0.5000722081         1.398395960    
AX        -1.013698717       -0.9312290147        -1.150211972    
AX       -0.2811435637       -0.4366801080        -1.810206108    
AX        0.4268196670        -1.777331916       -0.3499379118    
AX        -1.139981104        0.5448133335       -0.8972328228E-01
AX        0.8835277695         1.068324921       -0.7534745073    
AX       -0.7631762716         1.633679522       -0.8334403650E-03
AX         1.382504405       -0.3455204577        0.2889169052    
AX        -1.046466341        -1.091183334        0.7330151569    
AX        0.5960332078         1.033184408         1.172561138    
AX        0.8486411054       -0.8514283273         1.200805715    
AX        0.9874622240       -0.5772408927        -1.613160835    
AX        -1.392163216       -0.5214867517       -0.1753031103    
AX        0.2044476979       -0.7984400295       -0.8973803262    
AX         1.218371289        -1.522248795        0.4099382753    
AX         1.144250588        0.7390214254        0.2599579639    
AX        -1.259256366         1.219171512       -0.9361918082    
AX       -0.2423730280       -0.5990818027         1.296477630    
AX        0.3764282035        0.2916783459        -1.342800494    
AX       -0.2671721177         1.680351656         1.006207801    
AX        0.4074455255        0.1539234969       -0.2821562939    
AX       -0.5278581783       -0.4849364033E-01   -0.7646392414    
AX       -0.1999950527        0.7794718080        0.3841354402    
AX       -0.4469669625       -0.2579004497        0.2826841169    
AX        0.4598147369        0.5064005593E-01    0.7795833968    
AX        0.4359162957       -0.8230790125        0.1555580549    
    38
Energy=    -171.065101036374    
AX        0.5171617669       -0.4124770716E-01     1.877659839    
AX         1.316018778        -1.079124182       -0.3926164013    
AX         1.406844029        0.3360954005         1.267205635    
AX       -0.2028457383        0.9547327849       -0.6841733082    
AX         1.287008944       -0.7416945068E-01   -0.8643459547    
AX       -0.4911990874        -1.114964516       -0.2769999646    
AX        -1.382770690        0.1038831896E-01    0.8399650200    
AX        0.3488860226         1.693414553       -0.6148152333E-01
AX        -1.072238222         1.083489325        0.9042245855    
AX       -0.9056787522E-01    -1.688229511        0.5979478222    
AX        -1.533709823        0.1615815107        -1.028418525    
AX       -0.6725072805        0.5253272947        -1.618040313    
AX       -0.4349739625        0.2879826569         1.342409952    
AX        -1.136315747       -0.8865367666        -1.157362674    
AX       -0.2649195512       -0.5250728690        -1.735047370    
AX        0.4155823501        -1.742431421       -0.4000027976    
AX        -1.082587414        0.5732183730       -0.8608053003E-01
AX        0.9268840030         1.001616636       -0.7268140224    
AX       -0.7704929621         1.637924334       -0.2038727679E-01
AX         1.363964101       -0.1669213318        0.2418279172    
AX        -1.006134000        -1.055687651        0.7221052884    
AX        0.4518290979        0.9882499607         1.357991416    
AX         1.068797596       -0.7623245077         1.159994980    
AX        0.8879187478       -0.5749039491        -1.799223479    
AX        -1.392833320       -0.4891852591       -0.1513669105    
AX        0.3687391342       -0.7369867626       -0.8576724397    
AX         1.040471123        -1.677669884        0.5270691786    
AX        0.9921535995        0.9000093686        0.3716451319    
AX        -1.232167521         1.232021895       -0.9582776487    
AX       -0.6065446099E-01   -0.7743322508         1.226204965    
AX        0.3619223208        0.2818001042        -1.341337539    
AX       -0.1899641701         1.786532955        0.9256449595    
AX        0.4215562139        0.1654385970       -0.2479116653    
AX       -0.5073340660       -0.9934345270E-01   -0.7339430230    
AX       -0.1350624182        0.8338626521        0.4041879099    
AX       -0.4419151426       -0.2080863801        0.3390947557    
AX        0.4771206359        0.6380887965E-01    0.8135913751    
AX        0.4483349864       -0.8202777471        0.2227326361    
