    38
 Energy=    -171.026506373490
AX           -0.0987179254        0.9805952913        1.6865225080
AX            0.9192726560       -0.9373440834       -0.5933301533
AX            1.5754894200        0.3218221606        1.0888045900
AX           -0.0926255105        1.6359931810       -0.9477825135
AX            1.4361007950        0.0409576150       -0.7257737071
AX           -0.7124297423       -1.7319816310       -0.4721171045
AX           -1.4246441780       -0.1343354078        0.8186557476
AX            0.4593919280        1.4945566700        0.0125940937
AX           -0.8301818507        0.8606367109        0.7093798326
AX           -0.1470233672       -1.8993324870        0.5040626923
AX           -1.3008697720        0.1495754390       -1.3141305070
AX           -0.2761697130        0.6294180090       -1.3952788100
AX           -0.4478396785       -0.0019622133        1.3830276600
AX           -1.1357245720       -0.9671221348       -1.1804417670
AX           -0.4561755008       -0.3751022345       -1.8370792800
AX            0.4020298164       -1.9096817910       -0.4614590320
AX           -1.3132104040        0.3329239325       -0.2139064425
AX            0.6716670681        0.8335841174       -0.8472428426
AX           -0.7000792020        1.7143010140       -0.0134573467
AX            1.3523549930       -0.4022362415        0.2876167050
AX           -0.6413648793       -0.9872941970        0.8800394114
AX            0.9294789359        1.2529224240        1.1426856830
AX            1.2782895700       -0.7379923264        1.3399176860
AX            0.4912671836       -0.1740689067       -1.2844089310
AX           -1.1770396710       -0.7940577965       -0.0912366673
AX           -0.0301385475       -1.1494169790       -1.1535613780
AX            0.8541983849       -1.3853722940        0.4333591988
AX            1.1963314840        0.7044438216        0.1434521444
AX           -1.1096677460        1.1715382860       -0.9017865583
AX            0.3730371494       -0.4832507909        0.8051985451
AX            0.4619237886       -0.0230816088       -0.1990860928
AX           -0.0996767400        1.7030047600        0.9019979993
AX            0.2330744289        0.6110239856        0.6726414338
AX           -0.4650701935       -0.2260791857       -0.7406082900
AX           -0.2854796185        0.7607405447       -0.2988255822
AX           -0.4848326705       -0.0845277590        0.3158434906
AX            0.6421893242        0.1849582590        1.6176151290
AX           -0.0471354430       -0.9787561528       -0.0719015444
    38
 Energy=    -171.026505355645
AX           -0.0988851666        0.9805636701        1.6864543550
AX            0.9192816847       -0.9373396160       -0.5933525453
AX            1.5755100740        0.3217858336        1.0888329500
AX           -0.0925984895        1.6359971550       -0.9477999071
AX            1.4360970990        0.0409606659       -0.7257868115
AX           -0.7124183482       -1.7319906060       -0.4720524433
AX           -1.4246700460       -0.1343485837        0.8186278393
AX            0.4594273353        1.4945459290        0.0125834529
AX           -0.8301796261        0.8606558997        0.7093780881
AX           -0.1469050452       -1.8993300720        0.5041048615
AX           -1.3008971470        0.1495912479       -1.3140929300
AX           -0.2761831762        0.6294286109       -1.3952741100
AX           -0.4478640419       -0.0020371055        1.3830174310
AX           -1.1357326600       -0.9671311066       -1.1804115030
AX           -0.4562198141       -0.3750857209       -1.8370619970
AX            0.4020534320       -1.9096718260       -0.4614676368
AX           -1.3132188240        0.3329547357       -0.2138893249
AX            0.6716706222        0.8335768360       -0.8472424993
AX           -0.6999993729        1.7143378410       -0.0134597442
AX            1.3523774600       -0.4022407795        0.2876094484
AX           -0.6413664121       -0.9873272133        0.8800110079
AX            0.9294751528        1.2528750250        1.1426696150
AX            1.2782542590       -0.7379848659        1.3399437030
AX            0.4912451358       -0.1740643639       -1.2844156860
AX           -1.1770558370       -0.7940557923       -0.0912328231
AX           -0.0301562441       -1.1494090240       -1.1535495440
AX            0.8542540305       -1.3853502830        0.4333380290
AX            1.1963286470        0.7044096451        0.1434741017
AX           -1.1096571420        1.1715660110       -0.9017588826
AX            0.3730383068       -0.4832409222        0.8051801958
AX            0.4619163957       -0.0230939001       -0.1990916139
AX           -0.0996109235        1.7030328510        0.9019905139
AX            0.2330500382        0.6110209588        0.6726237624
AX           -0.4650818381       -0.2260713222       -0.7406057866
AX           -0.2854734345        0.7607463254       -0.2988268885
AX           -0.4848338235       -0.0845373090        0.3158460332
AX            0.6421495754        0.1850180250        1.6175889870
AX           -0.0471218358       -0.9787568560       -0.0719016945
    38
 Energy=    -171.026495524674
AX           -0.0992335825        0.9805626599        1.6862693610
AX            0.9192755155       -0.9373366269       -0.5934784789
AX            1.5750242350        0.3217619040        1.0888672920
AX           -0.0924895578        1.6359795680       -0.9477300166
AX            1.4361228570        0.0408908455       -0.7259060671
AX           -0.7123681523       -1.7320036210       -0.4719910992
AX           -1.4246308980       -0.1342193626        0.8186818813
AX            0.4595561273        1.4945174410        0.0126087560
AX           -0.8300845655        0.8606984540        0.7093479856
AX           -0.1467895421       -1.8992657730        0.5041402920
AX           -1.3009741960        0.1495237817       -1.3139258780
AX           -0.2762218469        0.6294282488       -1.3952054560
AX           -0.4479640831       -0.0021612206        1.3830550000
AX           -1.1357117830       -0.9672054953       -1.1803680300
AX           -0.4563273203       -0.3750573666       -1.8370224780
AX            0.4020747843       -1.9096805060       -0.4615096421
AX           -1.3131691080        0.3329828196       -0.2137914766
AX            0.6717181486        0.8335509693       -0.8472687022
AX           -0.6999734467        1.7143841220       -0.0134939770
AX            1.3524428950       -0.4022748957        0.2875023626
AX           -0.6413960243       -0.9873412337        0.8799502330
AX            0.9294634372        1.2530578860        1.1426416710
AX            1.2783082010       -0.7380327248        1.3398823210
AX            0.4912068037       -0.1740556677       -1.2844600620
AX           -1.1770298170       -0.7940058300       -0.0912116370
AX           -0.0301714357       -1.1494272880       -1.1536042010
AX            0.8543433400       -1.3853293620        0.4332259826
AX            1.1964396560        0.7043771477        0.1433455088
AX           -1.1096159040        1.1715584600       -0.9016933183
AX            0.3731041939       -0.4832698318        0.8051865577
AX            0.4620302283       -0.0231002147       -0.1990971003
AX           -0.0995927929        1.7031456670        0.9019298180
AX            0.2331726984        0.6109819789        0.6726502622
AX           -0.4650875819       -0.2260944460       -0.7405749010
AX           -0.2854034547        0.7608051621       -0.2987708571
AX           -0.4848104653       -0.0845550166        0.3158825136
AX            0.6418369034        0.1849308005        1.6178353470
AX           -0.0470744680       -0.9787214317       -0.0718997663
    38
 Energy=    -171.021231572085
AX           -0.0921802700        0.9808942665        1.6788281190
AX            0.9197744574       -0.9386785913       -0.5960530609
AX            1.5312930750        0.3260156546        1.0897451880
AX           -0.0909088851        1.6364273850       -0.9450178949
AX            1.4368953080        0.0382555098       -0.7318147191
AX           -0.7124856892       -1.7311368720       -0.4699153932
AX           -1.4230326440       -0.1325485795        0.8171386915
AX            0.4594038621        1.4931791760        0.0171959017
AX           -0.8186956745        0.8608491284        0.7119724211
AX           -0.1439470517       -1.8991019800        0.5047192504
AX           -1.3011738020        0.1495476320       -1.3109428210
AX           -0.2760873478        0.6297606496       -1.3939042770
AX           -0.4527203138       -0.0033635153        1.3844468260
AX           -1.1358795680       -0.9665758418       -1.1786401970
AX           -0.4577770562       -0.3743742211       -1.8361314370
AX            0.4016740512       -1.9104657740       -0.4627964575
AX           -1.3088514320        0.3353221045       -0.2110064755
AX            0.6721288582        0.8338836492       -0.8494221836
AX           -0.7019954553        1.7135030360       -0.0137342080
AX            1.3546307180       -0.4031388178        0.2842814981
AX           -0.6405113023       -0.9879869404        0.8797575277
AX            0.9276560566        1.2806501170        1.1214476020
AX            1.2810378520       -0.7444323179        1.3374591960
AX            0.4906089432       -0.1744413667       -1.2856712450
AX           -1.1750962530       -0.7918237881       -0.0901652020
AX           -0.0310828754       -1.1494560790       -1.1536189530
AX            0.8575207113       -1.3868026280        0.4303392173
AX            1.2021883600        0.7077247113        0.1306006079
AX           -1.1076011900        1.1714119150       -0.9010789313
AX            0.3755253528       -0.4869347000        0.8068229152
AX            0.4649462611       -0.0237387942       -0.1998829910
AX           -0.1042758658        1.7123970660        0.9020177834
AX            0.2468938616        0.6032563682        0.6785259875
AX           -0.4637542970       -0.2254847485       -0.7392915143
AX           -0.2816085493        0.7607320723       -0.2959350240
AX           -0.4801325765       -0.0844361474        0.3176437714
AX            0.6226784082        0.1600063041        1.6439802090
AX           -0.0450580375       -0.9788950428       -0.0718997287
    38
 Energy=    -172.877554084784
AX            0.3163036668        0.8683713603        1.6889287620
AX            0.9298528347       -0.9235993635       -0.5881310141
AX            1.1385770270        0.3106892643        1.1430779530
AX           -0.1089952204        1.6412199320       -0.9775028823
AX            1.4379431460        0.0544061638       -0.7430276489
AX           -0.6906392668       -1.7340993570       -0.4599478527
AX           -1.4126091340       -0.1271175799        0.8178582333
AX            0.4326820496        1.5273717160       -0.0060799495
AX           -0.8756828309        0.8698341999        0.6357702804
AX           -0.1463171222       -1.8642962770        0.5314483843
AX           -1.2951869860        0.1451358875       -1.3346337110
AX           -0.2830586957        0.6277740243       -1.4125615670
AX           -0.4353217845        0.1203029316        1.3599928910
AX           -1.1300634210       -0.9708937244       -1.1605697770
AX           -0.4518236748       -0.3917536131       -1.8378254740
AX            0.4173458314       -1.8981489730       -0.4344147258
AX           -1.3199541360        0.3013536447       -0.2394032507
AX            0.6646215368        0.8489347277       -0.8617132722
AX           -0.6723619039        1.7402630090       -0.0170266503
AX            1.3654859520       -0.3694785431        0.2882277687
AX           -0.5984223220       -0.9326461154        0.9280981274
AX            0.9725546655        1.4038766780        0.9633057482
AX            1.2883167800       -0.7892934042        1.3192955940
AX            0.4932034589       -0.1685590356       -1.2920349720
AX           -1.1527964910       -0.8090193988       -0.0641441451
AX           -0.0178432142       -1.1493967670       -1.1415170460
AX            0.8567695363       -1.3534017550        0.4430678605
AX            1.2077488480        0.7297300020        0.1111451839
AX           -1.1224068030        1.1700233060       -0.8969875077
AX            0.3892990976       -0.4315343782        0.8086907644
AX            0.4696406306       -0.0077818285       -0.2104010198
AX           -0.1280242556        1.6185826460        0.9608334814
AX            0.2372685472        0.6499096197        0.6275639350
AX           -0.4599404091       -0.2249653131       -0.7457412634
AX           -0.2920312064        0.7691340647       -0.3238088242
AX           -0.4762576983       -0.0676743031        0.3064809010
AX            0.4877143661       -0.2213620968        1.8747648250
AX           -0.0355913980       -0.9618913520       -0.0610781372
    38
 Energy=    -172.877736411133
AX            0.3168421627        0.8689147465        1.6887015700
AX            0.9298786643       -0.9237325726       -0.5876453227
AX            1.1389198720        0.3110758217        1.1430918570
AX           -0.1091327119        1.6410294470       -0.9774702242
AX            1.4382195600        0.0540368523       -0.7425568433
AX           -0.6906183743       -1.7341907290       -0.4613146583
AX           -1.4120775740       -0.1278293584        0.8185014125
AX            0.4323502810        1.5273742160       -0.0059749946
AX           -0.8758004299        0.8697568418        0.6356642571
AX           -0.1472852137       -1.8650269190        0.5302933106
AX           -1.2952622290        0.1454528275       -1.3346760640
AX           -0.2828303444        0.6277504701       -1.4126667110
AX           -0.4351007272        0.1208325853        1.3600234920
AX           -1.1305408470       -0.9703313823       -1.1606688310
AX           -0.4519892582       -0.3913806237       -1.8378850140
AX            0.4174060754       -1.8979559840       -0.4348948947
AX           -1.3201676780        0.3010834230       -0.2392088778
AX            0.6647567116        0.8488071125       -0.8614664747
AX           -0.6728461730        1.7399280120       -0.0171904318
AX            1.3657061690       -0.3699107453        0.2886275389
AX           -0.5971663393       -0.9327609771        0.9284356555
AX            0.9728384255        1.4044263530        0.9628931192
AX            1.2879935120       -0.7891670961        1.3199880380
AX            0.4933149812       -0.1686498976       -1.2917417920
AX           -1.1524863970       -0.8094552198       -0.0638702575
AX           -0.0179163656       -1.1490996070       -1.1418624770
AX            0.8559063684       -1.3536145710        0.4437197179
AX            1.2078394410        0.7297398607        0.1110282995
AX           -1.1225658540        1.1697899170       -0.8971825743
AX            0.3895566748       -0.4311627685        0.8086587145
AX            0.4697704046       -0.0078758517       -0.2101753296
AX           -0.1281929526        1.6185956890        0.9608640929
AX            0.2373359941        0.6499523843        0.6274729943
AX           -0.4601048811       -0.2249326329       -0.7457919630
AX           -0.2920861574        0.7689570546       -0.3238602060
AX           -0.4762042826       -0.0677753998        0.3065016187
AX            0.4875477543       -0.2206512440        1.8748370260
AX           -0.0358082587       -0.9620000351       -0.0611987720
    38
 Energy=    -172.877736411078
AX            0.3168416012        0.8689147023        1.6887012312
AX            0.9298786208       -0.9237327965       -0.5876448595
AX            1.1389197763        0.3110762205        1.1430914430
AX           -0.1091328000        1.6410294241       -0.9774701717
AX            1.4382196280        0.0540366619       -0.7425566537
AX           -0.6906191329       -1.7341901786       -0.4613145047
AX           -1.4120773750       -0.1278293737        0.8185017255
AX            0.4323499047        1.5273744376       -0.0059750739
AX           -0.8758003039        0.8697563999        0.6356650882
AX           -0.1472851780       -1.8650274421        0.5302934740
AX           -1.2952618012        0.1454532019       -1.3346762505
AX           -0.2828298267        0.6277503483       -1.4126668178
AX           -0.4351001533        0.1208314019        1.3600237096
AX           -1.1305410382       -0.9703311194       -1.1606695265
AX           -0.4519888117       -0.3913806217       -1.8378850408
AX            0.4174054313       -1.8979559513       -0.4348947138
AX           -1.3201674944        0.3010841243       -0.2392088092
AX            0.6647567875        0.8488070352       -0.8614664003
AX           -0.6728467991        1.7399272914       -0.0171901868
AX            1.3657062511       -0.3699106418        0.2886275196
AX           -0.5971667506       -0.9327614822        0.9284349317
AX            0.9728380972        1.4044265859        0.9628928429
AX            1.2879945511       -0.7891665225        1.3199877503
AX            0.4933152423       -0.1686500745       -1.2917414643
AX           -1.1524870163       -0.8094544017       -0.0638709548
AX           -0.0179164886       -1.1490995066       -1.1418621790
AX            0.8559063056       -1.3536147125        0.4437201354
AX            1.2078392590        0.7297400909        0.1110280423
AX           -1.1225655949        1.1697900361       -0.8971832047
AX            0.3895567544       -0.4311629189        0.8086589672
AX            0.4697704477       -0.0078760066       -0.2101752664
AX           -0.1281932567        1.6185958101        0.9608641265
AX            0.2373358310        0.6499524783        0.6274727798
AX           -0.4601048832       -0.2249327036       -0.7457918922
AX           -0.2920862041        0.7689568483       -0.3238602206
AX           -0.4762042454       -0.0677755114        0.3065016614
AX            0.4875491341       -0.2206509677        1.8748372362
AX           -0.0358084660       -0.9620001664       -0.0611984725
    38
 Energy=    -172.877194442556
AX           -0.1466421625       -1.8664351002        0.5294959910
AX            1.2078283318        0.7297257416        0.1108090814
AX            1.2870956842       -0.7891131205        1.3207470691
AX           -0.4526803376       -0.3904569232       -1.8376568407
AX            1.4379540295        0.0535509106       -0.7423276795
AX           -0.1278626051        1.6191286597        0.9602980245
AX           -1.4122044409       -0.1292975861        0.8181054211
AX           -0.0182513166       -1.1491937771       -1.1420614105
AX           -1.1521585641       -0.8103167022       -0.0638486204
AX            0.3159288661        0.8705326498        1.6884162447
AX           -1.1221085298        1.1701098772       -0.8964491751
AX           -0.2827266789        0.6279537114       -1.4120943937
AX           -0.5964371474       -0.9338730724        0.9277221335
AX           -0.6721121427        1.7402050544       -0.0169828183
AX           -0.1084434040        1.6412731944       -0.9771047191
AX            0.9730290938        1.4046886582        0.9628350599
AX           -1.3204399933        0.3004600192       -0.2391448027
AX            0.4927508205       -0.1691793865       -1.2914214062
AX           -1.1305279466       -0.9702661066       -1.1607761587
AX            1.3654810500       -0.3699400923        0.2890978018
AX           -0.4354434644        0.1208373848        1.3599428725
AX            0.4172202935       -1.8978626942       -0.4356441094
AX            0.4879427228       -0.2179472210        1.8744771743
AX            0.6648593129        0.8484202637       -0.8615773892
AX           -0.8759108075        0.8697956669        0.6355140889
AX            0.4329353638        1.5271860396       -0.0060437314
AX            1.1393127110        0.3117651483        1.1428332796
AX            0.9299752539       -0.9239167832       -0.5874403754
AX           -1.2956255120        0.1464869064       -1.3345538750
AX            0.3894727962       -0.4312619902        0.8087912124
AX            0.4696838208       -0.0080111216       -0.2100398597
AX           -0.6902902379       -1.7347137150       -0.4614909285
AX           -0.0358155831       -0.9623679877       -0.0612260972
AX           -0.2918883821        0.7689023919       -0.3234955439
AX           -0.4606491244       -0.2248788405       -0.7456851933
AX           -0.4763422087       -0.0679365012        0.3065952600
AX            0.8556680383       -1.3540458757        0.4437023376
AX            0.2374224022        0.6499923188        0.6276820766
    38
 Energy=    -172.492903961081
AX           -0.2199993450       -1.8863271010        0.4883986323
AX            1.2092732527        0.7376753411        0.1118336888
AX            1.2991629715       -0.7818382249        1.3326700272
AX           -0.4446553326       -0.3814027692       -1.8431158778
AX            1.4442112624        0.0477669476       -0.7258583667
AX           -0.1431465300        1.6159006790        0.9545960327
AX           -1.3955281063       -0.1476737656        0.8448209088
AX           -0.0142572373       -1.1376613642       -1.1568896202
AX           -1.1445237278       -0.8344330074       -0.0419878607
AX            0.3355800077        0.8896609177        1.6882246981
AX           -1.1277450236        1.1530619882       -0.8836503727
AX           -0.2661513066        0.6261801713       -1.4112042872
AX           -0.5662938291       -0.9345486027        0.9495761510
AX           -0.6845243493        1.7357835852       -0.0214159953
AX           -0.1195801707        1.6329105477       -0.9812559078
AX            0.9676773249        1.4254711694        0.9499784193
AX           -1.3262277749        0.2666759650       -0.2427903235
AX            0.5001119158       -0.1802285405       -1.2779411120
AX           -1.1553450755       -0.9317322148       -1.1634446977
AX            1.3663402868       -0.3782986074        0.3009423025
AX           -0.4217987498        0.1396602507        1.3659127575
AX            0.4005677908       -1.9056069298       -0.4376552689
AX            0.5063107500       -0.1989576207        1.8794233342
AX            0.6702303653        0.8456976643       -0.8552328309
AX           -0.8873617592        0.8596606563        0.6271609877
AX            0.4226493608        1.5313230868       -0.0117637857
AX            1.1500514575        0.3263971754        1.1407126342
AX            0.9324073760       -0.9374804844       -0.5677136912
AX           -1.2851010015        0.1653826251       -1.3549510732
AX            0.3957817312       -0.4219202616        0.8168719920
AX            0.4717670914       -0.0127657643       -0.2064259688
AX           -0.7139288483       -1.7295995385       -0.5198785015
AX           -0.0376918806       -0.9644297647       -0.0606037112
AX           -0.2911566319        0.7596285867       -0.3197084281
AX           -0.4554688861       -0.2265881981       -0.7483600215
AX           -0.4733012661       -0.0748961037        0.3123903291
AX            0.8626359475       -1.3492229359        0.4394522870
AX            0.2390279420        0.6567744409        0.6288825197
    38
 Energy=    -170.914421171016
AX           -0.4347467144       -1.8863290489        0.4539354781
AX            1.2075302268        0.7541207589        0.0850143966
AX            1.3213810704       -0.7863855412        1.2642734701
AX           -0.4515817288       -0.3653983636       -1.8518147663
AX            1.4385345406        0.0898395171       -0.7803282938
AX           -0.1347909807        1.6039492011        0.9780128570
AX           -1.3788382853       -0.1778456186        0.8202250978
AX            0.0334153581       -1.1113234940       -1.1680876575
AX           -1.0921637752       -0.8711445745       -0.0580383122
AX            0.3576791639        0.8516096285        1.6789412240
AX           -1.1491777853        1.1651649374       -0.8647355367
AX           -0.3001322525        0.6484892046       -1.4107484061
AX           -0.5052643045       -0.9276443286        0.9602521682
AX           -0.6868723988        1.7355204060        0.0065344685
AX           -0.1455077464        1.6588021070       -0.9666250005
AX            0.9766580673        1.4200891646        0.9475822684
AX           -1.3173656168        0.2586505519       -0.2376198978
AX            0.4986874295       -0.1271634597       -1.3225360753
AX           -1.1296800486       -0.9466353309       -1.1805188329
AX            1.3951624228       -0.3420909351        0.2477889944
AX           -0.4040271482        0.1245400715        1.3500479082
AX            0.4792893065       -1.9157710552       -0.2489939249
AX            0.5244848012       -0.2448598904        1.8418773769
AX            0.6510123137        0.8833917099       -0.8746464287
AX           -0.8777729869        0.8473609281        0.6328833447
AX            0.4175253035        1.5470783898       -0.0087554856
AX            1.1803361867        0.3336642792        1.1191863977
AX            0.9467021935       -0.9216323558       -0.5895530204
AX           -1.2960301581        0.1576511988       -1.3363002472
AX            0.4373019277       -0.3977387978        0.7794183980
AX            0.4776843222        0.0068071303       -0.2397524728
AX           -0.6234524907       -1.7399398306       -0.5966589799
AX            0.0179103202       -0.9980569440       -0.0479781126
AX           -0.2988819206        0.7716935920       -0.3252603217
AX           -0.4485251905       -0.2275601429       -0.7536884249
AX           -0.4541788222       -0.0818709862        0.2966610137
AX            0.5205222948       -1.4523371454        0.7895142440
AX            0.2471731061        0.6633050666        0.6104910919
    38
 Energy=    -170.379409654345
AX           -0.3621646745       -1.8963486236        0.4340580032
AX            1.2088131165        0.7422882426        0.0777180382
AX            1.3397093199       -0.8037031998        1.2344832191
AX           -0.4667615774       -0.3488000049       -1.8666673088
AX            1.4334363524        0.0925171612       -0.7993089161
AX           -0.1253102358        1.5859080572        0.9828987749
AX           -1.3833583400       -0.1715616829        0.8116519517
AX            0.0027982999       -1.1082940114       -1.1951146360
AX           -1.1143487297       -0.8534504891       -0.0759710526
AX            0.3638072405        0.8189344491        1.6775604292
AX           -1.1484514179        1.1754869623       -0.8639740042
AX           -0.3057184791        0.6604111130       -1.4158852825
AX           -0.5389698827       -0.9334689025        0.9312921619
AX           -0.6826694046        1.7348745592        0.0139327637
AX           -0.1430845880        1.6651379831       -0.9609305550
AX            0.9822601946        1.3956515187        0.9503509481
AX           -1.3199908320        0.2696258225       -0.2412769415
AX            0.4868015081       -0.1222714976       -1.3384755538
AX           -1.1426099841       -0.9349278706       -1.1949279860
AX            1.3933122542       -0.3589071135        0.2184497243
AX           -0.4012922018        0.1020261287        1.3387124273
AX            0.6815640258       -1.7942973790       -0.0145536169
AX            0.5205907215       -0.2953471769        1.8080778113
AX            0.6486806198        0.8855204094       -0.8803642332
AX           -0.8725813267        0.8414907652        0.6339385326
AX            0.4212177671        1.5373686075       -0.0034339302
AX            1.1745523189        0.3011521670        1.1025676165
AX            0.9364716882       -0.9005337358       -0.6410321971
AX           -1.3057966314        0.1717425693       -1.3411998351
AX            0.4362029034       -0.4188883081        0.7398061315
AX            0.4737475047        0.0061038604       -0.2565576525
AX           -0.6617710845       -1.7308796720       -0.5975215759
AX           -0.0164558731       -0.9799318501       -0.0872516527
AX           -0.2991889152        0.7732628623       -0.3274499594
AX           -0.4579943697       -0.2177289861       -0.7684514114
AX           -0.4590837532       -0.0833947508        0.2838916038
AX            0.4530280756       -1.4506468007        1.0240090482
AX            0.2506083916        0.6438788151        0.6069491162
    38
 Energy=    -170.469372700550
AX           -0.3236890817       -1.8933169884        0.4297192307
AX            1.2093049783        0.7377075793        0.0749885649
AX            1.3414073308       -0.8153714981        1.2202309229
AX           -0.4725040397       -0.3424583815       -1.8722896278
AX            1.4315350043        0.0935454220       -0.8063995086
AX           -0.1217383123        1.5791186664        0.9847632570
AX           -1.3851505082       -0.1691604809        0.8084674592
AX           -0.0082330869       -1.1076887937       -1.2061159069
AX           -1.1227354165       -0.8466511111       -0.0828964930
AX            0.3660999899        0.8066353380        1.6769387647
AX           -1.1481851861        1.1794252988       -0.8636674820
AX           -0.3078081563        0.6650095994       -1.4178561606
AX           -0.5476995992       -0.9391512607        0.9190160733
AX           -0.6810382128        1.7345872142        0.0167634008
AX           -0.1421807762        1.6675144055       -0.9587274868
AX            0.9843892548        1.3863193973        0.9513659932
AX           -1.3209971439        0.2739322800       -0.2426819214
AX            0.4820453595       -0.1199012000       -1.3448831660
AX           -1.1476947776       -0.9305312826       -1.2003253039
AX            1.3918154329       -0.3667314685        0.2073080183
AX           -0.4003652863        0.0933365680        1.3345187446
AX            0.7354338711       -1.7110582716        0.0757895534
AX            0.5189590530       -0.3153899042        1.7954087979