    38
Energy=    -172.200559790528    
AX       -0.5828531755        0.9791854010         1.777634803    
AX        0.9183953753       -0.9619451261       -0.7122267148    
AX         1.269953158        0.1866488749         1.063468989    
AX       -0.8403894962E-01     1.638302678       -0.9041114219    
AX         1.439262209        0.1198659595E-01   -0.8471837045    
AX       -0.7108634723        -1.743496136       -0.5173358435    
AX        -1.296581294       -0.1823827769        0.8972304975    
AX        0.5171833133         1.466317879        0.2199434141E-01
AX       -0.7589769444        0.8033124377        0.7054347550    
AX       -0.1085224346        -1.941868899        0.4237313322    
AX        -1.324977523        0.1882626210        -1.250968409    
AX       -0.3096209881        0.6527740268        -1.373779336    
AX       -0.2817848273       -0.1432888166E-03     1.373322514    
AX        -1.177600201       -0.9353010428        -1.141547953    
AX       -0.5305754241       -0.3389704800        -1.835714320    
AX        0.3915543538        -1.933688853       -0.5779666611    
AX        -1.271571340        0.2830244096       -0.1501341206    
AX        0.6781266402        0.8263093213       -0.8777346204    
AX       -0.5801606265         1.703367966        0.9402877678E-01
AX         1.426480866       -0.4641651330        0.1655617417    
AX       -0.5026108603        -1.020872828        0.9027294100    
AX         1.115047412         1.290081945        0.9463187398    
AX        0.6609150444       -0.3602302383         1.819699954    
AX        0.4544322066       -0.1630764879        -1.343097929    
AX        -1.119921688       -0.8328307901       -0.3754858728E-01
AX       -0.7020931178E-01    -1.139157533        -1.210767530    
AX        0.9022676813        -1.448595918        0.2943705662    
AX         1.278866734        0.6503857360        0.5075396560E-01
AX        -1.100265368         1.182637110       -0.7737458830    
AX        0.4946489404       -0.5370233762        0.7506792999    
AX        0.5084165854       -0.5814438289E-01   -0.2538304506    
AX        0.2390090891E-01     1.527432307         1.022503999    
AX        0.3419079127        0.5641418355        0.6303442691    
AX       -0.4606197502       -0.2288036025       -0.7379977866    
AX       -0.2410995781        0.7379524635       -0.2815898634    
AX       -0.3987695222       -0.1276727975        0.3199544471    
AX        0.4995923886        0.7354007637         1.689936370    
AX       -0.9328451279E-02    -1.009154682       -0.1224176352    
    38
Energy=    -170.226578645418    
AX       -0.3581260981        0.9863800533         1.720874041    
AX        0.9166220564       -0.9480303128       -0.6521641411    
AX         1.336487969        0.2365307233         1.029367662    
AX       -0.9020166992E-01     1.639919729       -0.9396067489    
AX         1.437225673        0.2756316177E-01   -0.7984724190    
AX       -0.7055406687        -1.730011376       -0.4846935999    
AX        -1.377942865       -0.1587237795        0.8354448430    
AX        0.4901690454         1.491699451        0.2273958335E-02
AX       -0.8012138489        0.8430980664        0.7026701593    
AX       -0.1277468205        -1.928390526        0.4647152359    
AX        -1.312215497        0.1658287022        -1.283137633    
AX       -0.2963371618        0.6398765706        -1.387603348    
AX       -0.4157579465       -0.4345082869E-01     1.388662040    
AX        -1.154000206       -0.9500637471        -1.159623344    
AX       -0.4914183552       -0.3601733826        -1.834670870    
AX        0.4043240220        -1.915382035       -0.5066633114    
AX        -1.285421201        0.3162246217       -0.1852650451    
AX        0.6710702763        0.8331013238       -0.8784670243    
AX       -0.6448857953         1.718597831        0.2430499864E-01
AX         1.401834142       -0.4523670002        0.2044421260    
AX       -0.5676575205        -1.009927582        0.8791993569    
AX         1.032489392         1.309415002         1.008247368    
AX         1.098748220       -0.6556752772         1.642878045    
AX        0.4712257736       -0.1690842055        -1.310600058    
AX        -1.142401860       -0.8026077552       -0.6667804599E-01
AX       -0.4987494183E-01    -1.143620844        -1.173746623    
AX        0.8628289606        -1.399259867        0.3938924975    
AX         1.241316323        0.7012614429        0.6448792375E-01
AX        -1.104758851         1.178880727       -0.8462540004    
AX        0.4509411836       -0.4609053212        0.8018727548    
AX        0.4922554804       -0.2807760494E-01   -0.2168759479    
AX       -0.3353087553E-01     1.650296774        0.9359682180    
AX        0.2850601980        0.6129990538        0.6797187948    
AX       -0.4585541176       -0.2226736916       -0.7341192170    
AX       -0.2582447302        0.7571425720       -0.2885100012    
AX       -0.4353939967       -0.9362545862E-01    0.3258443981    
AX        0.5394993681        0.3459511898         1.727512560    
AX       -0.2087305703E-01   -0.9827163997       -0.8522560199E-01
    38
Energy=    -170.243028283739    
AX       -0.3042218579        0.9818502362         1.703091286    
AX        0.9178888330       -0.9449605924       -0.6383752158    
AX         1.342097986        0.2591765546         1.032377180    
AX       -0.9112614037E-01     1.639737619       -0.9444406615    
AX         1.437217966        0.2725509552E-01   -0.7870506314    
AX       -0.7033783791        -1.728199807       -0.4802461360    
AX        -1.393854679       -0.1564871290        0.8224533926    
AX        0.4868347308         1.494987998       -0.2244590266E-02
AX       -0.8065920938        0.8497181311        0.7029337295    
AX       -0.1301223627        -1.926331709        0.4708627570    
AX        -1.310653945        0.1630320493        -1.286168076    
AX       -0.2946085913        0.6380332099        -1.387895418    
AX       -0.4527670980       -0.4834310923E-01     1.394010832    
AX        -1.150515777       -0.9520562392        -1.161191414    
AX       -0.4859240657       -0.3626526037        -1.833175654    
AX        0.4074211652        -1.911668601       -0.4953285595    
AX        -1.283998263        0.3190811750       -0.1873659814    
AX        0.6709671104        0.8322315439       -0.8775331726    
AX       -0.6533427884         1.721344191        0.1528711035E-01
AX         1.394617931       -0.4462715269        0.2223901606    
AX       -0.5782231090        -1.010563759        0.8779817083    
AX         1.027117586         1.328510270        0.9971699678    
AX         1.166846810       -0.7020694784         1.576906788    
AX        0.4743534473       -0.1703816701        -1.303279012    
AX        -1.142952553       -0.7976162247       -0.6928677326E-01
AX       -0.4589689763E-01    -1.143803778        -1.166909624    
AX        0.8568392103        -1.390056297        0.4131016874    
AX         1.236954468        0.7075458571        0.6596043848E-01
AX        -1.105150483         1.178474343       -0.8541591398    
AX        0.4410421100       -0.4516786226        0.8155110348    
AX        0.4909489827       -0.2289845647E-01   -0.2098564364    
AX       -0.3982160714E-01     1.672396619        0.9218866038    
AX        0.2804109098        0.6255759145        0.6938856624    
AX       -0.4578036657       -0.2208842799       -0.7273382349    
AX       -0.2606168763        0.7572833155       -0.2861474008    
AX       -0.4493539717       -0.8553454158E-01    0.3200256302    
AX        0.5319269664        0.2562215702         1.731385460    
AX       -0.2256100494E-01   -0.9799972691       -0.7922929781E-01
    38
Energy=    -172.850815577832    
AX        0.3102593020        0.8638473213         1.688878075    
AX        0.9308690779       -0.9254471738       -0.5855109420    
AX         1.138879553        0.3105698396         1.144987242    
AX       -0.1039868364         1.640603264       -0.9817693573    
AX         1.441076734        0.5303150993E-01   -0.7368139362    
AX       -0.6977260691        -1.726634825       -0.4443001464    
AX        -1.414952586       -0.1229868868        0.8139778090    
AX        0.4290549439         1.526769143       -0.5653622369E-02
AX       -0.8707092469        0.8688477871        0.6429982384    
AX       -0.1339157171        -1.864752151        0.5383296021    
AX        -1.294776880        0.1421449775        -1.333121209    
AX       -0.2773304982        0.6245617105        -1.416380887    
AX       -0.4374526400        0.1105200626         1.358547232    
AX        -1.128743534       -0.9739534451        -1.164352271    
AX       -0.4493425825       -0.3936551844        -1.836672879    
AX        0.4129969447        -1.898420877       -0.4340829574    
AX        -1.316825306        0.3189739331       -0.2397486403    
AX        0.6674012576        0.8475330452       -0.8615433094    
AX       -0.6764573423         1.734264490       -0.1922088982E-01
AX         1.363744150       -0.3664294280        0.2926785226    
AX       -0.6092467324       -0.9378606503        0.9150221558    
AX        0.9705418170         1.404055958        0.9643843209    
AX         1.287718679       -0.7882943496         1.323926010    
AX        0.4958025955       -0.1717946507        -1.288912305    
AX        -1.162853076       -0.7937477628       -0.7370104176E-01
AX       -0.1958932831E-01    -1.150494266        -1.137439038    
AX        0.8624572057        -1.353114363        0.4414827042    
AX         1.208315301        0.7331485224        0.1114970053    
AX        -1.114907299         1.173303432       -0.9156328410    
AX        0.3868094439       -0.4345248561        0.8103099666    
AX        0.4699896702       -0.8447871747E-02   -0.2098288456    
AX       -0.1280980965         1.617081123        0.9624262381    
AX        0.2378084001        0.6472850332        0.6272786789    
AX       -0.4604038755       -0.2251923350       -0.7462891564    
AX       -0.2910477861        0.7692577417       -0.3272789494    
AX       -0.4768516411       -0.6614808841E-01    0.3041357549    
AX        0.4870376586       -0.2230761055         1.876313216    
AX       -0.3554565890E-01   -0.9608236240       -0.5891954726E-01
    38
Energy=    -172.877734762540    
AX        0.3144060337        0.8697456772         1.688760593    
AX        0.9300712774       -0.9250583063       -0.5852636046    
AX         1.136985227        0.3106784361         1.145155476    
AX       -0.1055270337         1.640462071       -0.9788210735    
AX         1.439713397        0.5207933464E-01   -0.7397977894    
AX       -0.6914786816        -1.733777583       -0.4614359999    
AX        -1.413794182       -0.1258435940        0.8158745693    
AX        0.4339579815         1.526915196       -0.6179927542E-02
AX       -0.8761625159        0.8711045518        0.6333756240    
AX       -0.1501602161        -1.864531619        0.5312223398    
AX        -1.292507713        0.1458724268        -1.337324469    
AX       -0.2794035240        0.6270513995        -1.413639768    
AX       -0.4376527262        0.1222209043         1.359096630    
AX        -1.129322265       -0.9699565959        -1.162133095    
AX       -0.4488363154       -0.3922053010        -1.838474748    
AX        0.4163502906        -1.898661395       -0.4328385767    
AX        -1.319410464        0.3022595943       -0.2419861825    
AX        0.6673199804        0.8475414838       -0.8607432727    
AX       -0.6709813691         1.740611126       -0.1969206879E-01
AX         1.364777444       -0.3711073868        0.2915202005    
AX       -0.5998563877       -0.9315390107        0.9278756725    
AX        0.9723868372         1.404083255        0.9638571973    
AX         1.284557572       -0.7896056498         1.323027200    
AX        0.4956393824       -0.1700471861        -1.290661775    
AX        -1.153199422       -0.8083206184       -0.6549882481E-01
AX       -0.1690743910E-01    -1.149873420        -1.141124866    
AX        0.8536904670        -1.354165885        0.4462353599    
AX         1.208370700        0.7285628303        0.1129181135    
AX        -1.119583020         1.170303570       -0.9001904698    
AX        0.3875386650       -0.4309826712        0.8096722461    
AX        0.4701731914       -0.8480358845E-02   -0.2092566396    
AX       -0.1283979916         1.619413150        0.9595101935    
AX        0.2367681110        0.6501487746        0.6275107911    
AX       -0.4588978905       -0.2249687357       -0.7465178970    
AX       -0.2906603591        0.7690381900       -0.3249430610    
AX       -0.4768859000       -0.6705931018E-01    0.3056263210    
AX        0.4835703073       -0.2199290817         1.875914369    
AX       -0.3665144852E-01   -0.9619782638       -0.6062878740E-01
    38
Energy=    -172.877736411080    
AX        0.3144413317        0.8697359252         1.688727406    
AX        0.9300760218       -0.9250807925       -0.5852075011    
AX         1.137009020        0.3106875798         1.145097603    
AX       -0.1055499186         1.640476243       -0.9787908208    
AX         1.439717665        0.5206314772E-01   -0.7397897980    
AX       -0.6914925965        -1.733796212       -0.4614863165    
AX        -1.413798730       -0.1258313884        0.8158355418    
AX        0.4339234836         1.526927122       -0.6165899675E-02
AX       -0.8761467187        0.8710820670        0.6333685285    
AX       -0.1502255016        -1.864515102        0.5312664923    
AX        -1.292511060        0.1458710448        -1.337294985    
AX       -0.2794361980        0.6270804173        -1.413639437    
AX       -0.4376244198        0.1221991338         1.359091375    
AX        -1.129270857       -0.9699626464        -1.162212793    
AX       -0.4488093906       -0.3921654761        -1.838496941    
AX        0.4163101694        -1.898675862       -0.4327974313    
AX        -1.319390631        0.3022699101       -0.2419837632    
AX        0.6673014836        0.8475426730       -0.8607438643    
AX       -0.6710309368         1.740602270       -0.1967799767E-01
AX         1.364762056       -0.3711100965        0.2915378994    
AX       -0.5999277108       -0.9315204419        0.9279009851    
AX        0.9723975418         1.404084636        0.9638362401    
AX         1.284612962       -0.7895864875         1.323028248    
AX        0.4956568981       -0.1700302594        -1.290663795    
AX        -1.153187430       -0.8083200064       -0.6556812951E-01
AX       -0.1686821500E-01    -1.149854754        -1.141117697    
AX        0.8536553146        -1.354187188        0.4463021043    
AX         1.208366866        0.7285804052        0.1128874790    
AX        -1.119619147         1.170327451       -0.9001585942    
AX        0.3875396337       -0.4310120479        0.8097078446    
AX        0.4701705751       -0.8498430261E-02   -0.2092543282    
AX       -0.1284082590         1.619377277        0.9595174704    
AX        0.2367782065        0.6501351533        0.6274943466    
AX       -0.4588814880       -0.2249682210       -0.7465345750    
AX       -0.2906680030        0.7690350256       -0.3249487521    
AX       -0.4768693445       -0.6708086200E-01    0.3056191241    
AX        0.4836703891       -0.2198771333         1.875932428    
AX       -0.3667306155E-01   -0.9620040728       -0.6061769569E-01
    38
Energy=    -172.877736411121    
AX        0.3144413119        0.8697359531         1.688727439    
AX        0.9300759287       -0.9250807235       -0.5852075592    
AX         1.137009050        0.3106875727         1.145097693    
AX       -0.1055498759         1.640476315       -0.9787908630    
AX         1.439717635        0.5206322452E-01   -0.7397897792    
AX       -0.6914925995        -1.733796242       -0.4614862587    
AX        -1.413798801       -0.1258313549        0.8158355257    
AX        0.4339235010         1.526927145       -0.6165919944E-02
AX       -0.8761466523        0.8710820914        0.6333685440    
AX       -0.1502254911        -1.864515232        0.5312665163    
AX        -1.292511025        0.1458710465        -1.337295011    
AX       -0.2794361699        0.6270804558        -1.413639422    
AX       -0.4376244287        0.1221991691         1.359091387    
AX        -1.129270853       -0.9699626314        -1.162212709    
AX       -0.4488094539       -0.3921654020        -1.838496929    
AX        0.4163101986        -1.898675889       -0.4327973362    
AX        -1.319390647        0.3022698760       -0.2419838067    
AX        0.6673014329        0.8475426616       -0.8607438535    
AX       -0.6710309181         1.740602285       -0.1967804228E-01
AX         1.364762178       -0.3711100647        0.2915378968    
AX       -0.5999276194       -0.9315204991        0.9279009090    
AX        0.9723974670         1.404084601        0.9638362496    
AX         1.284612913       -0.7895866094         1.323028236    
AX        0.4956569052       -0.1700302527        -1.290663803    
AX        -1.153187514       -0.8083200556       -0.6556805706E-01
AX       -0.1686826971E-01    -1.149854833        -1.141117721    
AX        0.8536553689        -1.354187118        0.4463020098    
AX         1.208366843        0.7285804742        0.1128874966    
AX        -1.119619075         1.170327413       -0.9001586843    
AX        0.3875396899       -0.4310120022        0.8097078243    
AX        0.4701705687       -0.8498450890E-02   -0.2092543259    
AX       -0.1284082457         1.619377325        0.9595174415    
AX        0.2367782552        0.6501351578        0.6274943335    
AX       -0.4588815253       -0.2249682718       -0.7465345858    
AX       -0.2906679744        0.7690350194       -0.3249487040    
AX       -0.4768693532       -0.6708086035E-01    0.3056191290    
AX        0.4836703218       -0.2198772087         1.875932419    
AX       -0.3667307453E-01   -0.9620040851       -0.6061767794E-01
