          22
Energy of minimum      1=    -36.72248770     first found at step        0 after                  147 function calls
HH31        8.6309420026        3.1812776870       -0.0035680251
CH3         8.8877347402        4.0915143681        0.5375876082
HH32        8.0064113841        4.4634852951        1.0594834001
HH33        9.2344502091        4.8441549790       -0.1699729914
C           9.9917830199        3.7902991645        1.5365955811
O           9.8099497407        3.9821651355        2.7407246438
N          11.1392711667        3.3276019298        1.0335454955
H          11.1994571738        3.2186829195        0.0296685884
CA         12.3220611150        2.9361234545        1.8119458673
HA         12.4715775570        3.6640101983        2.6130355645
CB         12.0682646633        1.5570203133        2.4460474368
HB1        11.9058486698        0.8112506479        1.6660742252
HB2        11.1912884475        1.5941143191        3.0934741372
HB3        12.9293894263        1.2596000951        3.0462487119
C          13.6024232316        2.9297430637        0.9486106083
O          13.5396498673        2.7962717514       -0.2790390642
N          14.7665705341        3.0614610909        1.5946117647
H          14.7386202959        3.1552601610        2.6009362027
CH3        16.0767681944        3.0711974074        0.9500467409
HH31       16.8582877683        3.1942642585        1.7014325361
HH32       16.2384808389        2.1304909273        0.4208981247
HH33       16.1357924251        3.8965161232        0.2383986973
          22
Energy of minimum      2=    -36.72248514     first found at step      684 after               133888 function calls
HH31       11.0086115624        4.4094392566       -2.7851716949
CH3        11.1958563984        4.1602644192       -1.7409879264
HH32       11.1159820323        5.0614099068       -1.1336333183
HH33       10.4573630570        3.4334394845       -1.4038312736
C          12.5885883988        3.5724534365       -1.5911681093
O          13.3154533782        3.4366179562       -2.5775852215
N          12.9540842280        3.2155752613       -0.3570984423
H          12.2820914305        3.3502860230        0.3868997052
CA         14.2608779095        2.6643169004        0.0257319294
HA         14.5754673455        1.9463527172       -0.7355038420
CB         15.2900749515        3.8074862486        0.0741075766
HB1        14.9941527439        4.5453731419        0.8216786697
HB2        16.2725829331        3.4123808699        0.3364165929
HB3        15.3612155312        4.2937119988       -0.8996213994
C          14.1951887382        1.9110396102        1.3721991161
O          13.3119797066        2.1651824951        2.1993822912
N          15.1406786601        0.9913171982        1.5959524783
H          15.8363871956        0.8466494919        0.8766964430
CH3        15.2445157572        0.1863106998        2.8097725512
HH31       14.3378616561       -0.4065380342        2.9423866523
HH32       15.3773117236        0.8354985449        3.6769509021
HH33       16.1004347643       -0.4863408685        2.7360065139
          22
Energy of minimum      3=    -35.96777669     first found at step      818 after               165019 function calls
HH31       11.3473435150        3.1952600524       -0.2698920346
CH3        11.3417821526        3.2518784791        0.8182837321
HH32       11.4036733299        4.2951010722        1.1272017039
HH33       10.4167680164        2.8167404653        1.1956398921
C          12.5255488189        2.4780262360        1.3713582519
O          13.3772233805        3.0462973013        2.0567891485
N          12.5860857562        1.1785902933        1.0671059364
H          11.8378282452        0.7910150352        0.5079804525
CA         13.6250106147        0.2562964354        1.5489957256
HA         13.8952784098        0.5410841579        2.5682225156
CB         13.0119165473       -1.1514524971        1.6001711666
HB1        12.7494505709       -1.4844010312        0.5945718396
HB2        13.7307108048       -1.8519073644        2.0281497776
HB3        12.1170021494       -1.1465979114        2.2245745605
C          14.9372086701        0.2834185981        0.7275594732
O          15.9149443163       -0.3679534516        1.1093391802
N          14.9761485271        1.0251538853       -0.3867484467
H          14.1382750308        1.5322544751       -0.6331756607
CH3        16.1354808805        1.1557175290       -1.2643451357
HH31       16.4174512509        0.1772007236       -1.6568144148
HH32       16.9768678571        1.5746788069       -0.7097607905
HH33       15.8958692328        1.8169654646       -2.0984921375
          22
Energy of minimum      4=    -35.83395897     first found at step      331 after                59571 function calls
HH31       12.5054735461       -1.5664348277       -4.3324639825
CH3        12.8410807205       -1.5338909133       -3.2962927909
HH32       12.8155016263       -2.5389016180       -2.8757726213
HH33       13.8612423250       -1.1526161720       -3.2606348745
C          11.9308553397       -0.6163816384       -2.4983032246
O          11.3003801118       -1.0529387493       -1.5332982709
N          11.8591864396        0.6542336585       -2.9068266282
H          12.4532389542        0.9226869157       -3.6800738864
CA         11.1184568970        1.7221083825       -2.2143677870
HA         10.2916141528        1.2700178842       -1.6624400775
CB         12.0745318677        2.3689733474       -1.1965652826
HB1        12.4756095547        1.6089170297       -0.5244853119
HB2        12.8988191111        2.8597347544       -1.7163622677
HB3        11.5388028678        3.1088865626       -0.6002797474
C          10.4676111575        2.7572821966       -3.1673444627
O          10.0696768694        3.8426452040       -2.7312252432
N          10.3618873445        2.4427764448       -4.4654769161
H          10.6684211795        1.5239046863       -4.7514934202
CH3         9.7942240295        3.3152407396       -5.4899574366
HH31        9.8337192706        2.8203942233       -6.4615948706
HH32        8.7542706209        3.5436023948       -5.2503207731
HH33       10.3616713053        4.2459883363       -5.5427957574
          22
Energy of minimum      5=    -35.07797425     first found at step      135 after                23299 function calls
HH31       10.4639059363        3.5357913504        3.4740427466
CH3        10.7701258717        2.8240469251        4.2401752773
HH32        9.8879255056        2.4412950897        4.7526924338
HH33       11.4173268170        3.3261932202        4.9587088951
C          11.5287505767        1.6789941877        3.5916025176
O          11.1180004115        0.5211258967        3.6938648775
N          12.6381619388        1.9994733554        2.9216424275
H          12.9099619982        2.9720527153        2.8964232748
CA         13.5124236498        1.0296983837        2.2529724888
HA         12.8871422405        0.3196996071        1.7062436625
CB         14.3790750777        1.7844976265        1.2341741901
HB1        13.7433085449        2.3128689902        0.5217543314
HB2        15.0221074479        2.5027318931        1.7459757551
HB3        15.0050352989        1.0777681903        0.6870139530
C          14.3740102981        0.2231912578        3.2502924899
O          14.7800126180        0.7333761545        4.3011540078
N          14.6750042027       -1.0341058437        2.9052721510
H          14.3185863860       -1.3793426293        2.0245276286
CH3        15.4851616077       -1.9437440948        3.7102409787
HH31       16.4827909489       -1.5253792887        3.8543152884
HH32       15.0171814494       -2.0962865886        4.6842959241
HH33       15.5739381807       -2.9065814515        3.2047189206
          22
Energy of minimum      6=    -34.67336085     first found at step      463 after                85802 function calls
HH31       15.0522238478       -0.4172980641       -1.9356048924
CH3        14.1630183848       -0.4744763410       -1.3083257340
HH32       13.8627142300       -1.5165334960       -1.2007302991
HH33       14.3890617727       -0.0596052583       -0.3263757032
C          13.0412307260        0.3237671976       -1.9495616730
O          11.9849469272       -0.2314061607       -2.2552924346
N          13.2731303950        1.6295664531       -2.1324427498
H          14.1762086671        1.9726208627       -1.8315483488
CA         12.3869544547        2.6050807064       -2.7971477518
HA         12.9139817974        3.5615704533       -2.7876107989
CB         12.2058598207        2.2092928409       -4.2752555005
HB1        11.7068424513        3.0157546797       -4.8142268681
HB2        13.1786164303        2.0336790054       -4.7367277534
HB3        11.5991241261        1.3073417584       -4.3583965499
C          11.0456524036        2.8834592525       -2.0682871446
O          10.1585107510        3.5349960384       -2.6300800265
N          10.8859343524        2.4118817959       -0.8252237923
H          11.6505562332        1.8830110290       -0.4312634563
CH3         9.6888221708        2.5903525529       -0.0089534452
HH31        8.8270736864        2.1463799713       -0.5102508589
HH32        9.8249980812        2.1052174506        0.9587994992
HH33        9.5015461492        3.6536579202        0.1502146034
          22
Energy of minimum      7=    -34.60667063     first found at step      295 after                52610 function calls
HH31       11.2638699937        5.7046672998       -0.6627559971
CH3        11.8931542422        5.2551955897        0.1050651330
HH32       12.7227836462        5.9248555371        0.3301755430
HH33       11.3041725974        5.0960025393        1.0079289259
C          12.4368015123        3.9243193834       -0.3859536111
O          12.1353261415        3.5072026640       -1.5060782316
N          13.2285057751        3.2561931206        0.4595593538
H          13.3761659775        3.6735330977        1.3670064249
CA         13.8708531856        1.9610371306        0.1736535270
HA         13.1457584995        1.3172976779       -0.3294437817
CB         15.0526547853        2.1930597195       -0.7843410269
HB1        15.5260014570        1.2388659457       -1.0209632214
HB2        15.7906569776        2.8490284778       -0.3198870844
HB3        14.7059024817        2.6463755361       -1.7135181996
C          14.3364984639        1.1985042512        1.4344121969
O          14.2732401128       -0.0342896465        1.4604539710
N          14.7780478556        1.9078852494        2.4821246728
H          14.8588450780        2.9085451784        2.3780540583
CH3        15.2176960738        1.3266863218        3.7478584041
HH31       14.4023043458        0.7600470431        4.2007951697
HH32       15.5225701795        2.1186853524        4.4336611856
HH33       16.0647172234        0.6599415380        3.5772369188
          22
Energy of minimum      8=    -32.77896052     first found at step      364 after                66020 function calls
HH31        9.5815756455        1.3297449251        4.0927531066
CH3         9.4931271271        2.2414367538        3.5025698113
HH32        9.3589197073        3.0926078765        4.1696446210
HH33        8.6301782042        2.1597257076        2.8422832886
C          10.7506494841        2.4287403131        2.6703012004
O          11.4411443822        3.4393590015        2.8187713617
N          11.0331122697        1.4493150373        1.8022167402
H          10.3912071869        0.6687738006        1.7820831874
CA         12.1863488792        1.3770775372        0.8864662828
HA         12.0782046038        0.4590293935        0.3042472705
CB         12.1225403606        2.5475334473       -0.1167205114
HB1        11.1220060561        2.6146190617       -0.5468774833
HB2        12.8323576595        2.3872923381       -0.9289870266
HB3        12.3641801295        3.4893722624        0.3767750611
C          13.5538736183        1.2498212069        1.6081254503
O          13.6300914043        1.1431975044        2.8378954617
N          14.6457968329        1.2296704250        0.8336758235
H          14.5135048290        1.3130305124       -0.1647335132
CH3        16.0146249801        1.1043555522        1.3265847721
HH31       16.1315118009        0.1630829591        1.8663849673
HH32       16.2458887901        1.9329590745        1.9981407786
HH33       16.7130902239        1.1216696295        0.4885319366
          22
Energy of minimum      9=     103.2978501     first found at step       22 after                 3744 function calls
HH31        6.5511053739        3.7296122089       -6.5480239029
CH3         7.0845673075        4.6533195041       -6.2878913013
HH32        8.1118623387        4.4584159875       -5.9529546340
HH33        7.1920867156        5.1915182598       -7.2288163553
C           6.2898985367        5.5919895337       -5.3522828328
O           6.4380916876        4.6408910505       -4.5764894868
N           5.6387101685        6.2532881006       -4.3536006787
H           5.2000706414        7.0965514023       -4.6992161560
CA          5.5207044276        6.1718152222       -2.8616954149
HA          5.3155519631        5.1426224052       -2.5571451917
CB          6.8489348052        6.6206993317       -2.2232106864
HB1         7.0680035966        7.6525207538       -2.5023578744
HB2         7.6639861513        5.9788704492       -2.5596288470
HB3         6.7805905839        6.5541137667       -1.1365099760
C           4.3439745997        7.0279786552       -2.3477624456
O           3.9166959345        7.9798913497       -3.0115455601
N           3.8292694183        6.6974932556       -1.1577847750
H           4.2388152704        5.9125377633       -0.6696170466
CH3         2.7221264404        7.3950385381       -0.5100321737
HH31        2.4972958160        6.9238187349        0.4480389204
HH32        1.8340935866        7.3531788747       -1.1430507839
HH33        2.9895935605        8.4390035741       -0.3377907403
          22
Energy of minimum     10=     108.1548843     first found at step      113 after                19409 function calls
HH31        4.8342803332       13.0860301858       -6.1646308012
CH3         5.5996473383       12.3148435242       -6.2478500507
HH32        5.9106363985       12.2242149644       -7.2882224344
HH33        6.4597957987       12.5910699131       -5.6386360914
C           5.0469431298       10.9832526345       -5.7679499407
O           3.8860672157       10.9050355922       -5.3591726432
N           5.8827928754        9.9422428167       -5.8132873229
H           6.8237000023       10.1175292350       -6.1360755522
CA          5.5577474983        8.5576965019       -5.4011735881
HA          4.8783212397        8.5742676591       -4.5357618775
CB          4.7293168153        7.9290519241       -6.5360916405
HB1         5.3090664484        7.9083807726       -7.4606395363
HB2         4.4534008281        6.9080066135       -6.2675582354
HB3         3.8149580870        8.5005178394       -6.7006172963
C           6.8183097357        7.6506335786       -5.1639401625
O           6.8656543642        8.2466831751       -4.0790534070
N           7.9317858924        6.9570949053       -4.7782658234
H           8.2048881744        6.2952030957       -5.4915950061
CH3         8.8562629085        6.9124273442       -3.6088414413
HH31        8.3109894846        6.6337873957       -2.7050595704
HH32        9.6366578913        6.1710036836       -3.7866895946
HH33        9.3281177965        7.8857503902       -3.4612247006
