    52
Energy=    -36.1555293799486    
HH        -3.764956849        0.7204258120        -1.107232938    
CH        -2.818741774        0.1858345514        -1.180795395    
HH        -2.124182066        0.7543956823        -1.798214969    
HH        -2.987892319       -0.7924087635        -1.629191587    
C         -2.238736194        0.7516136956E-02    0.2022453578    
O         -1.141217607        0.4924025238        0.4775873061    
N         -2.958712642       -0.7006397774         1.071631281    
H         -3.844025572        -1.075507302        0.7641579083    
CA        -2.536888024       -0.9680345797         2.449515982    
HA        -2.409802176       -0.1005983323E-01     2.957815229    
CB        -3.653084461        -1.734971082         3.171278048    
HB        -4.573563154        -1.149455742         3.159210530    
HB        -3.829362042        -2.693641282         2.680701438    
HB        -3.363485350        -1.913717961         4.207794863    
C         -1.189500007        -1.722116070         2.492458297    
O         -1.050838382        -2.805169001         1.914245394    
N        -0.1919274481        -1.125198897         3.158566773    
H        -0.4038110679       -0.2529375145         3.623837422    
CA         1.210119031        -1.569307070         3.201303707    
HA         1.768194948       -0.7513294356         3.660159715    
CB         1.335191699        -2.765600073         4.160433816    
HB        0.8436736414        -3.641555195         3.735886924    
HB        0.8737861378        -2.523250321         5.118679586    
HB         2.387656529        -2.996490705         4.329451172    
C          1.886164754        -1.776639339         1.816973747    
O          2.879621209        -2.504444764         1.712824572    
N          1.364005648        -1.142442573        0.7560123456    
H         0.5305322958       -0.5897347772        0.9106498698    
CA         1.830973769        -1.291216105       -0.6315172109    
HA         2.807934714        -1.777185647       -0.6350919914    
CB        0.8437711991        -2.216814564        -1.355842390    
HB       -0.1453579591        -1.758201770        -1.390492253    
HB         1.188561579        -2.395678654        -2.375135300    
HB        0.7789951101        -3.172633746       -0.8339914037    
C          2.002290060        0.4233169105E-01    -1.397618367    
O          2.823994423        0.1086103151        -2.317841832    
N          1.270421387         1.096791129        -1.006834502    
H         0.5980179408        0.9374733971       -0.2674382710    
CA         1.202375655         2.414317572        -1.657905711    
HA        0.4320320400         2.979400920        -1.129888329    
CB         2.524505437         3.166125769        -1.415478751    
HB         3.330871118         2.711717222        -1.991918598    
HB         2.423795366         4.210033042        -1.713887939    
HB         2.779784730         3.135206202       -0.3551835151    
C         0.7439898673         2.387287001        -3.141685587    
O         0.4269361106         1.333700904        -3.707814978    
N         0.6579569194         3.569875776        -3.767919548    
H         0.9166138778         4.394689419        -3.242884342    
CH        0.2241868016         3.756097834        -5.153867154    
HH       -0.7969247254         3.390111266        -5.280202431    
HH        0.2536136926         4.815248496        -5.417256577    
HH        0.8824424300         3.206789680        -5.830289408    
    52
Energy=    -35.0747126046833    
HH        -4.649913644       -0.6949011856        -1.020269612    
CH        -3.599520940       -0.9576234241        -1.139594854    
HH        -3.149866024       -0.3248457694        -1.903919967    
HH        -3.517704542        -2.002678354        -1.435881803    
C         -2.881669030       -0.7541230117        0.1745569869    
O         -1.926152229        0.1972528263E-01    0.2451790632    
N         -3.329301756        -1.456305004         1.215520664    
H         -4.110281630        -2.078787395         1.069029315    
CA        -2.757240378        -1.374174938         2.562037708    
HA        -2.831621536       -0.3384552697         2.899689013    
CB        -3.598812587        -2.235612564         3.513265293    
HB        -4.632715943        -1.887293986         3.513097036    
HB        -3.570454059        -3.280438864         3.199671546    
HB        -3.201551566        -2.157460595         4.526322014    
C         -1.267434705        -1.781067510         2.572620384    
O        -0.9082680002        -2.883910627         2.146929062    
N        -0.4043967996       -0.8705966268         3.042403085    
H        -0.7938265627       -0.5528962507E-02     3.391914666    
CA         1.063744310       -0.9679567807         3.027877212    
HA         1.429085247        0.1734861716E-01     3.322474968    
CB         1.518375705        -1.939695764         4.130376569    
HB         1.234726175        -2.960662395         3.872903127    
HB         1.056533204        -1.666581483         5.080125458    
HB         2.602045920        -1.890983843         4.243758297    
C          1.713654413        -1.225245503         1.639640873    
O          2.891794562        -1.590573941         1.567394168    
N         0.9772576560        -1.021612481        0.5369563212    
H         0.1339808526E-01   -0.7348878589        0.6562341019    
CA         1.439258892        -1.261472805       -0.8385187058    
HA         2.306555322        -1.923028823       -0.8100145231    
CB        0.3278862517        -2.007156429        -1.589423590    
HB       -0.5410250131        -1.360614662        -1.711759852    
HB        0.6872550085        -2.303237001        -2.575759111    
HB        0.4006025159E-01    -2.902918138        -1.037129361    
C          1.884297482        0.1625689082E-01    -1.589934243    
O          2.519543815       -0.8846397230E-01    -2.644749655    
N          1.581438950         1.204322105        -1.043063553    
H          1.072659106         1.182890366       -0.1721866694    
CA         1.819928603         2.533414020        -1.629565580    
HA         1.347502568         3.257101819       -0.9627648373    
CB         3.329689210         2.835202782        -1.586611313    
HB         3.862090483         2.209183429        -2.303363894    
HB         3.511550770         3.882323779        -1.830329959    
HB         3.718034702         2.643509364       -0.5852102546    
C          1.161885245         2.766391824        -3.017642965    
O         0.4497232427         1.908978768        -3.555194751    
N          1.360446494         3.964771309        -3.585914550    
H          1.939471174         4.626438292        -3.086152435    
CH        0.8089143525         4.384412481        -4.875701942    
HH       -0.2823807879         4.359718967        -4.843482068    
HH         1.131236546         5.401190964        -5.108752962    
HH         1.154094287         3.715714703        -5.667083919    
    52
Energy=    -35.3503472283984    
HH        -5.387024023        -2.360468014       -0.4045447461    
CH        -4.339655967        -2.276858015       -0.6918655508    
HH        -4.254065520        -1.661601364        -1.586770323    
HH        -3.937424849        -3.269234112       -0.8917626191    
C         -3.561483838        -1.641535202        0.4376298886    
O         -2.958394104       -0.5834608681        0.2568903998    
N         -3.564937810        -2.286671278         1.603517100    
H         -4.077247079        -3.153858044         1.667774367    
CA        -2.839705367        -1.823215171         2.788897549    
HA        -3.126929552       -0.7868957236         2.978383864    
CB        -3.279206945        -2.655679447         4.000638725    
HB        -4.357152282        -2.564829561         4.142377066    
HB        -3.022487682        -3.705313813         3.848476932    
HB        -2.774595708        -2.292727927         4.897231429    
C         -1.310032766        -1.866714259         2.579712848    
O        -0.7635876674        -2.872496422         2.113706284    
N        -0.6241083752       -0.7711747556         2.932798982    
H         -1.150184764       -0.3828207214E-02     3.328538848    
CA        0.8251904540       -0.5663008809         2.778689737    
HA        0.9999794604        0.4926213715         2.976808885    
CB         1.564016309        -1.338590033         3.885193244    
HB         1.472618775        -2.412576773         3.719252882    
HB         1.141139933        -1.088030901         4.859008826    
HB         2.620531149        -1.067651128         3.884498148    
C          1.385664136       -0.7957754387         1.347994014    
O          2.577745927        -1.072647150         1.177537125    
N         0.5451779770       -0.6743112447        0.3104938079    
H        -0.4232932864       -0.4601724849        0.5054805705    
CA        0.9146484178       -0.9347788001        -1.087765552    
HA         1.564999079        -1.811041850        -1.113726436    
CB       -0.3653950253        -1.286397597        -1.856861982    
HB        -1.039095373       -0.4285077469        -1.875153383    
HB       -0.1139088658        -1.561051669        -2.882060359    
HB       -0.8655884694        -2.130897513        -1.380675243    
C          1.688332399        0.2197190019        -1.769626964    
O          2.328705699       -0.4048556971E-02    -2.802656400    
N          1.653169311         1.428923075        -1.187489622    
H          1.110111338         1.504772104       -0.3405869566    
CA         2.244591673         2.674673968        -1.703013932    
HA         1.925540997         3.473368196        -1.030847013    
CB         3.776831600         2.590474195        -1.570018069    
HB         4.180698211         1.873955198        -2.285982556    
HB         4.225564604         3.566536387        -1.756716293    
HB         4.044771016         2.277331725       -0.5597923836    
C          1.747747327         3.102451144        -3.111630584    
O         0.8641047128         2.475568216        -3.709662219    
N          2.284444823         4.217114596        -3.629249642    
H          2.989665620         4.691610437        -3.081229499    
CH         1.932421418         4.793997439        -4.928157462    
HH        0.8730911800         5.058660594        -4.946955999    
HH         2.523252899         5.693576434        -5.111796341    
HH         2.130749173         4.073987669        -5.724933394    
