    52
Energy=    -37.9728100101864    
HH        -4.342446530        -3.651914960       -0.5240868638E-01
CH        -3.276740712        -3.794713334        0.1223246868    
HH        -2.837264021        -4.328254157       -0.7197346447    
HH        -3.132646442        -4.371163677         1.035333837    
C         -2.611700033        -2.446293252        0.2716615432    
O         -1.710070809        -2.110920016       -0.4952356105    
N         -3.037354770        -1.678275940         1.275280223    
H         -3.781377275        -2.034900931         1.858178452    
CA        -2.566716455       -0.3092524192         1.526450207    
HA        -2.734455736        0.2801911292        0.6231696463    
CB        -3.427155553        0.2862406020         2.648692672    
HB        -4.480224609        0.2586380503         2.364651121    
HB        -3.286372928       -0.2798146081         3.571032006    
HB        -3.138529138         1.324176626         2.821030515    
C         -1.060155926       -0.2115769570         1.861003302    
O        -0.4439829644        0.8355762299         1.642859970    
N        -0.4438627576        -1.304574347         2.329930578    
H         -1.008942844        -2.124837303         2.498221743    
CA        0.9902301981        -1.391181270         2.629193361    
HA         1.246031636       -0.5844893901         3.318659720    
CB         1.239957410        -2.725655098         3.343904943    
HB        0.9969199373        -3.558006564         2.681263110    
HB        0.6249358722        -2.787127431         4.243017184    
HB         2.289566685        -2.796502626         3.632881975    
C          1.900769982        -1.237550503         1.386880152    
O          3.083861701       -0.9139288627         1.527726734    
N          1.361336946        -1.423016506        0.1738269638    
H         0.3934240263        -1.715618791        0.1201828590    
CA         2.067517765        -1.193942214        -1.092128596    
HA         3.092668690        -1.553310043       -0.9857728973    
CB         1.387083157        -2.043544126        -2.173458583    
HB        0.3682289957        -1.691379225        -2.339974558    
HB         1.945288543        -1.965847699        -3.107266794    
HB         1.363022690        -3.089763606        -1.865373438    
C          2.152695219        0.2976166094        -1.504256162    
O          2.888508541        0.6275256373        -2.440769986    
N          1.432318284         1.189549305       -0.8044951113    
H         0.8789300089        0.8299548919       -0.3831802456E-01
CA         1.290422978         2.627100137        -1.082509750    
HA        0.5493723152         3.006096890       -0.3762883945    
CB         2.612418057         3.337491757       -0.7363928645    
HB         3.384224528         3.076647264        -1.461209493    
HB         2.472249374         4.418775101       -0.7449009637    
HB         2.942180493         3.042005173        0.2607854878    
C         0.7289514282         2.971743589        -2.489223555    
O         0.3869439517         2.091968421        -3.289418252    
N         0.5833667470         4.273093706        -2.778349267    
H         0.8669010078         4.940924190        -2.073750637    
CH        0.5203296616E-01     4.799177971        -4.037175549    
HH       -0.9706363846         4.447637204        -4.189277903    
HH        0.4958529719E-01     5.890784643        -4.016455224    
HH        0.6686907595         4.464440529        -4.873998047    
    52
Energy=    -33.6176190692453    
HH        -4.095312431        0.2933473616        -1.693081800    
CH        -3.114869707        0.7586834222        -1.599973479    
HH        -3.133687880         1.744628049        -2.062490070    
HH        -2.371383978        0.1366882053        -2.096460110    
C         -2.763813084        0.8896339601       -0.1352274384    
O         -2.614315767         2.004696107        0.3630844323    
N         -2.638641312       -0.2513052880        0.5437362826    
H         -2.794635908        -1.110689648        0.3710569370E-01
CA        -2.320339745       -0.3575923326         1.972192147    
HA        -2.733424657        0.5133208320         2.484346855    
CB        -3.054723559        -1.586321730         2.537703496    
HB        -4.126379030        -1.485913529         2.357937808    
HB        -2.701214125        -2.499563710         2.055635803    
HB        -2.893345404        -1.654400862         3.614862354    
C        -0.7925530423       -0.3184220962         2.225987230    
O        -0.1332251604        0.6657157702         1.881043960    
N        -0.2008746346        -1.376512604         2.797735853    
H        -0.7806005911        -2.158150108         3.069702096    
CA         1.232581942        -1.447576116         3.120408331    
HA         1.481596134       -0.6014102123         3.763526326    
CB         1.471628429        -2.736490108         3.917519705    
HB         1.232222622        -3.607510597         3.305171847    
HB        0.8484080929        -2.741225446         4.813064654    
HB         2.518453453        -2.791821384         4.219823339    
C          2.160019209        -1.371069913         1.883292208    
O          3.311823551       -0.9418476836         1.996985501    
N          1.654980945        -1.739070933        0.6983638440    
H         0.7214810482        -2.124566993        0.6884538346    
CA         2.351151317        -1.618422578       -0.5888821710    
HA         3.416722284        -1.787803830       -0.4243131353    
CB         1.838949644        -2.740843972        -1.501931877    
HB        0.7784503901        -2.596572128        -1.714362570    
HB         2.393244906        -2.733840658        -2.441366496    
HB         1.983322038        -3.708338055        -1.018757960    
C          2.216976092       -0.2242183182        -1.254681768    
O          2.839826980        0.1566051630E-01    -2.294613251    
N          1.428242472        0.6860569804       -0.6610708959    
H          1.002717171        0.4181014677        0.2167713793    
CA         1.023342616         1.998821377        -1.186774547    
HA        0.3087695145         2.404769598       -0.4681889317    
CB         2.230000377         2.953882986        -1.169388049    
HB         2.959517178         2.657156028        -1.923422782    
HB         1.903484344         3.972945962        -1.379044325    
HB         2.702108419         2.937357838       -0.1859896135    
C         0.2639218443         1.964227058        -2.539702089    
O         0.1230910147        0.9196405797        -3.186819223    
N        -0.2697322144         3.121741615        -2.955149371    
H        -0.1278151185         3.936314047        -2.372563274    
CH        -1.036748359         3.295869482        -4.189927238    
HH        -1.895278731         2.621159538        -4.198305309    
HH        -1.396252414         4.323915379        -4.266516449    
HH       -0.4078668789         3.077166472        -5.055450759    
    52
Energy=    -37.1738336533522    
HH        -5.528616147         1.805754936        0.9011762215    
CH        -4.636516736         2.248527054         1.342402695    
HH        -4.926284224         2.968948228         2.106403027    
HH        -4.059264263         2.750980250        0.5672373189    
C         -3.793192792         1.158038278         1.964213964    
O         -3.534690446         1.185743999         3.167881919    
N         -3.366194519        0.1981373635         1.144844767    
H         -3.623305763        0.2607722637        0.1710687294    
CA        -2.519414700       -0.9249791394         1.558578285    
HA        -2.929346470        -1.340235780         2.481566284    
CB        -2.596453120        -2.016121792        0.4809709849    
HB        -3.635054140        -2.313891565        0.3282610219    
HB        -2.186511514        -1.644185941       -0.4597262983    
HB        -2.025770416        -2.890771192        0.7965848413    
C         -1.060295533       -0.5052793001         1.844976742    
O        -0.5548387241        0.4788157021         1.294072527    
N        -0.3530055867        -1.293584024         2.663743561    
H        -0.8180447856        -2.092091902         3.073965377    
CA         1.031789795        -1.027118528         3.080083162    
HA         1.072267657       -0.2400758306E-01     3.508717480    
CB         1.390838738        -2.029465296         4.184854188    
HB         1.362302512        -3.047423716         3.792566897    
HB        0.6850085299        -1.940363770         5.012070439    
HB         2.394551114        -1.820619800         4.557964773    
C          2.060513143        -1.070041006         1.924637083    
O          3.140491378       -0.4821342560         2.033997996    
N          1.721771749        -1.721564672        0.8044519546    
H         0.8426176887        -2.218130140        0.7984489711    
CA         2.529403366        -1.755811323       -0.4202343526    
HA         3.575835495        -1.890224463       -0.1403907404    
CB         2.098029116        -2.986966692        -1.228403496    
HB         1.058199500        -2.883701423        -1.542806824    
HB         2.728088209        -3.085102111        -2.113448873    
HB         2.205578046        -3.887138648       -0.6213752756    
C          2.449873268       -0.4601787444        -1.267391943    
O          3.240694676       -0.2980371731        -2.203094032    
N          1.526742083        0.4576533242       -0.9367586126    
H         0.9403252227        0.2514781702       -0.1384436697    
CA         1.210187386         1.697276355        -1.662725073    
HA        0.3416425255         2.132472773        -1.164940064    
CB         2.361478210         2.701509393        -1.467647377    
HB         3.245006744         2.377380924        -2.018430032    
HB         2.065381870         3.687859294        -1.825868725    
HB         2.608501592         2.781059066       -0.4079058941    
C         0.7777884568         1.499467560        -3.141370704    
O         0.6699917762        0.3743826529        -3.645254207    
N         0.4758543923         2.606840778        -3.834775330    
H         0.5696367734         3.494176744        -3.358668345    
CH        0.2774103187E-01     2.628613901        -5.228481928    
HH       -0.9051321404         2.070372774        -5.331818593    
HH       -0.1400229953         3.657573015        -5.552733643    
HH        0.7838232707         2.175334985        -5.873047179    
