    52
Energy=    -35.3503472283965    
HH        -4.750977135        0.2365976624       -0.8649312669    
CH        -4.921414135       -0.5156871156       -0.9568496948E-01
HH        -5.872960052       -0.3239917719        0.3986195764    
HH        -4.941431311        -1.504972248       -0.5511773068    
C         -3.808282817       -0.4592217054        0.9254405030    
O         -2.895657750        0.3581649290        0.8033755355    
N         -3.874090088        -1.331034099         1.930984147    
H         -4.651006452        -1.974808271         1.954615799    
CA        -2.863873919        -1.428293479         2.987338432    
HA        -2.723625330       -0.4333753374         3.414923539    
CB        -3.392123390        -2.341965261         4.101174799    
HB        -3.559772551        -3.348274750         3.713843858    
HB        -2.663932043        -2.390006883         4.912145912    
HB        -4.329857363        -1.945486638         4.493309098    
C         -1.503317327        -1.910811142         2.438147039    
O         -1.434749444        -2.894368574         1.692979039    
N        -0.4222216829        -1.215281041         2.816087499    
H        -0.5690424101       -0.4394214024         3.447492783    
CA        0.9627601587        -1.457969863         2.381211040    
HA         1.537511390       -0.5934969413         2.718058658    
CB         1.524841481        -2.671167261         3.142040089    
HB         1.026071581        -3.584124673         2.814817563    
HB         1.370353164        -2.541586042         4.214077010    
HB         2.595101023        -2.763899346         2.953420739    
C          1.184171656        -1.501882868        0.8440942034    
O          2.155078685        -2.098421381        0.3663350221    
N         0.3022554962       -0.8681081827        0.5788130126E-01
H        -0.4821268758       -0.4070459572        0.4983103423    
CA        0.3414762191       -0.8866298237        -1.410995706    
HA        0.6175281832        -1.891877848        -1.734629152    
CB        -1.077150729       -0.6089930297        -1.924874766    
HB        -1.387878897        0.3977040424        -1.641695063    
HB        -1.096654173       -0.6928775988        -3.012208590    
HB        -1.773984423        -1.335780829        -1.504958475    
C          1.372236321        0.8543884185E-01    -2.034696899    
O          1.727816204       -0.7543173788E-01    -3.207293722    
N          1.865034963         1.062042723        -1.256436545    
H          1.517806454         1.101303360       -0.3099693627    
CA         2.785793830         2.136072927        -1.663994179    
HA         2.881540379         2.806819992       -0.8081640885    
CB         4.184340849         1.532532487        -1.892777605    
HB         4.924292533         2.326115242        -2.000540556    
HB         4.465890310        0.9146771455        -1.038734078    
HB         4.190024372        0.9202321514        -2.795090663    
C          2.276622855         3.029235940        -2.828920457    
O          1.147840352         2.885674712        -3.315426931    
N          3.099099093         4.001484612        -3.249293701    
H          4.001007131         4.075294093        -2.797715574    
CH         2.793495823         4.957763263        -4.315133089    
HH         1.912389761         5.546191500        -4.050586626    
HH         3.636828030         5.634786379        -4.465059524    
HH         2.596922302         4.428160896        -5.249734630    
    52
Energy=    -34.5885397206757    
HH        -5.462391279        0.4389238948       -0.1199402176    
CH        -4.959374470       -0.5265635000       -0.9114245091E-01
HH        -5.680110952        -1.297767663        0.1785579516    
HH        -4.539428112       -0.7555063460        -1.069558764    
C         -3.838824078       -0.4675646003        0.9237508564    
O         -2.928823759        0.3491794729        0.7814174379    
N         -3.889021271        -1.326129980         1.942542747    
H         -4.662578572        -1.972595190         1.986651352    
CA        -2.866722967        -1.403153035         2.989136833    
HA        -2.723743288       -0.4004676739         3.397267004    
CB        -3.381221282        -2.297259489         4.125075759    
HB        -3.550381289        -3.310913940         3.758072107    
HB        -2.644586370        -2.328790008         4.929213312    
HB        -4.315781790        -1.895713442         4.519643238    
C         -1.510361455        -1.892947955         2.435843416    
O         -1.448803995        -2.877301678         1.691119965    
N        -0.4244851780        -1.203935367         2.812091141    
H        -0.5659003598       -0.4270653138         3.443506304    
CA        0.9593376712        -1.457933037         2.379783725    
HA         1.539924955       -0.5969974422         2.715680450    
CB         1.511106131        -2.673452961         3.144438625    
HB         1.006167376        -3.583452602         2.818433043    
HB         1.355678636        -2.540242356         4.215896232    
HB         2.580985046        -2.774544742         2.957966803    
C          1.183630472        -1.507099555        0.8432917359    
O          2.153124940        -2.108853895        0.3692231325    
N         0.3061544579       -0.8716441825        0.5359206264E-01
H        -0.4774317688       -0.4067614777        0.4912541534    
CA        0.3487014362       -0.8932957588        -1.415124557    
HA        0.6254093501        -1.899215695        -1.736096835    
CB        -1.068918062       -0.6169900518        -1.932338824    
HB        -1.381073418        0.3896555043        -1.650487748    
HB        -1.086088385       -0.7018153754        -3.019643380    
HB        -1.765842430        -1.344107361        -1.513212141    
C          1.380979188        0.7726090380E-01    -2.038699484    
O          1.736720744       -0.8434895714E-01    -3.211145559    
N          1.874898697         1.053382913        -1.260543297    
H          1.527590785         1.093280224       -0.3141353608    
CA         2.797215645         2.126080424        -1.668120239    
HA         2.893628293         2.796914719       -0.8124330866    
CB         4.195018295         1.520612508        -1.896364468    
HB         4.936061203         2.313178190        -2.004115539    
HB         4.475504689        0.9025952537        -1.042088823    
HB         4.200136735        0.9080831024        -2.798525525    
C          2.289567773         3.019641097        -2.833407153    
O          1.160700716         2.877522654        -3.320140749    
N          3.113493406         3.990634825        -3.253843611    
H          4.015396554         4.063309305        -2.802071901    
CH         2.809472747         4.947054631        -4.320009239    
HH         1.929123856         5.536778775        -4.055827752    
HH         3.653781577         5.622863862        -4.469915805    
HH         2.612383458         4.417478173        -5.254516878    
    52
Energy=    -35.3503472283973    
HH        -5.874377438       -0.2966904013        0.3989582887    
CH        -4.923535277       -0.4953341245       -0.9395506593E-01
HH        -4.947645650        -1.487191342       -0.5436182547    
HH        -4.749717711        0.2516754586       -0.8675732907    
C         -3.810420703       -0.4375829144        0.9271167449    
O         -2.894301480        0.3751868873        0.8004830217    
N         -3.880174370        -1.303169490         1.937759993    
H         -4.659824648        -1.943487711         1.964975699    
CA        -2.870635724        -1.398494376         2.994938002    
HA        -2.726264645       -0.4016794479         3.416693606    
CB        -3.403031300        -2.303337536         4.113995150    
HB        -3.574861113        -3.311189937         3.732552697    
HB        -2.675246427        -2.349693888         4.925429097    
HB        -4.339166853        -1.900576667         4.503537850    
C         -1.512008880        -1.890012777         2.448960489    
O         -1.447440304        -2.878225668         1.709617332    
N        -0.4280594204        -1.196865378         2.823084991    
H        -0.5717350715       -0.4166826563         3.449869932    
CA        0.9559837036        -1.447991383         2.390014060    
HA         1.534320912       -0.5839974413         2.721916558    
CB         1.512722804        -2.659061291         3.158125671    
HB         1.010158008        -3.571804395         2.836153805    
HB         1.358527951        -2.522511576         4.229339569    
HB         2.582624189        -2.757447105         2.970340587    
C          1.177577031        -1.501899485        0.8532415061    
O          2.146056079        -2.105360314        0.3792627605    
N         0.2985507886       -0.8690281416        0.6307447882E-01
H        -0.4839718304       -0.4020520751        0.5005713744    
CA        0.3380464197       -0.8963697831        -1.405657463    
HA        0.6099032164        -1.904670345        -1.723290489    
CB        -1.079264344       -0.6157431144        -1.921540372    
HB        -1.385781140        0.3939153758        -1.644378113    
HB        -1.098861924       -0.7059486340        -3.008366374    
HB        -1.779280582        -1.337078465        -1.497535689    
C          1.373077168        0.6762119434E-01    -2.034799577    
O          1.728253035       -0.1016637170        -3.206333795    
N          1.869832653         1.046691727        -1.262174376    
H          1.522545924         1.093002186       -0.3160473101    
CA         2.795244036         2.114382278        -1.675806638    
HA         2.893633070         2.789747172       -0.8239169529    
CB         4.191269545         1.503570691        -1.900659177    
HB         4.934611779         2.293355288        -2.012898000    
HB         4.469985981        0.8895675273        -1.042916248    
HB         4.194569181        0.8859464565        -2.799348376    
C          2.290152538         3.002820854        -2.846109142    
O          1.160887702         2.861190489        -3.332061900    
N          3.116852701         3.969074720        -3.271983068    
H          4.018957274         4.041712754        -2.820607604    
CH         2.815571306         4.920346610        -4.343518002    
HH         1.936908238         5.514058504        -4.082677204    
HH         3.661807435         5.592888320        -4.497204402    
HH         2.616976464         4.386086888        -5.275036379    
