    52
Energy=    -35.3093212065785    
HH        -3.964765521         3.035101905        0.3238978879    
CH        -2.922111934         2.809287507        0.1034373101    
HH        -2.353513731         3.736423920        0.4031112113E-01
HH        -2.860563669         2.277391332       -0.8450182688    
C         -2.358420413         1.940413582         1.205552385    
O         -1.431438234         2.350156275         1.903671383    
N         -2.915999653        0.7405593100         1.360067756    
H         -3.668988651        0.4847190354        0.7388201717    
CA        -2.478027003       -0.2498042289         2.348545599    
HA        -2.331451346        0.2614997568         3.302160483    
CB        -3.599664812        -1.279535353         2.541304643    
HB        -4.517556722       -0.7758437069         2.848196055    
HB        -3.777790141        -1.817998227         1.609001854    
HB        -3.316241053        -1.994197652         3.315326941    
C         -1.139127065       -0.9208880583         1.968299445    
O        -0.8066475880        -1.049062934        0.7849735483    
N        -0.3866352993        -1.378166434         2.977299740    
H        -0.7395998754        -1.246063160         3.914769030    
CA        0.9225608737        -2.033073793         2.850179360    
HA         1.378613522        -2.017904343         3.841673606    
CB        0.7203973363        -3.519468845         2.504177416    
HB        0.2253700591        -3.624610944         1.537642259    
HB        0.1012422619        -3.991856217         3.268220875    
HB         1.685305673        -4.028204411         2.475927607    
C          1.913111478        -1.258809769         1.944129175    
O          2.396466267       -0.1909133661         2.332278121    
N          2.213046600        -1.771131571        0.7436870934    
H          1.779886769        -2.645428569        0.4833595582    
CA         3.130796119        -1.154645953       -0.2226651932    
HA         4.000852595       -0.7812731242        0.3205145941    
CB         3.612838544        -2.256709764        -1.175587509    
HB         2.772719577        -2.647558415        -1.751857101    
HB         4.355586719        -1.849568305        -1.862943368    
HB         4.070493597        -3.067317485       -0.6065360863    
C          2.534678881        0.4758856474E-01   -0.9978296030    
O          3.282645365        0.7695523287        -1.666321105    
N          1.216222048        0.2746682340       -0.8961189188    
H         0.6888326791       -0.3579950895       -0.3062467725    
CA        0.4315456418         1.288836847        -1.616047765    
HA       -0.6129944390         1.107128891        -1.358145959    
CB        0.7757379661         2.681787860        -1.056709415    
HB         1.779130516         2.976442945        -1.365513824    
HB        0.6305573188E-01     3.421382118        -1.422478796    
HB        0.7271354818         2.666882838        0.3287606571E-01
C         0.4940526429         1.190386978        -3.164722239    
O          1.127240427        0.2945306376        -3.737239847    
N        -0.2147605647         2.095382368        -3.855421513    
H        -0.7211666931         2.793166343        -3.327025541    
CH       -0.3034255848         2.154641656        -5.315643272    
HH       -0.7325639376         1.228468902        -5.703727916    
HH       -0.9366772181         2.990468554        -5.619663618    
HH        0.6905660743         2.291160828        -5.746837454    
    52
Energy=    -34.3957872587770    
HH        -3.452571597         3.684297078        0.5217210878    
CH        -3.075458670         2.762137354        0.8161242704E-01
HH        -2.314734581         2.991918792       -0.6619661478    
HH        -3.898561548         2.234323261       -0.3991429270    
C         -2.462342010         1.911296893         1.173261954    
O         -1.540044679         2.362217094         1.851642948    
N         -2.967265650        0.6902734882         1.347938505    
H         -3.718014419        0.3959991498        0.7414813752    
CA        -2.486512066       -0.2663487390         2.349867079    
HA        -2.339427068        0.2691847189         3.290022979    
CB        -3.578571336        -1.319655325         2.582519192    
HB        -4.504916328       -0.8324943244         2.890755999    
HB        -3.755504608        -1.884266452         1.665576129    
HB        -3.266752435        -2.008637643         3.368803857    
C         -1.135948312       -0.9123625506         1.966939602    
O        -0.7995710404        -1.030368536        0.7836136459    
N        -0.3791010244        -1.362878971         2.975835980    
H        -0.7356262547        -1.236878866         3.912800667    
CA        0.9307002953        -2.016737588         2.850800292    
HA         1.388497368        -1.993562760         3.841336460    
CB        0.7286696218        -3.505934050         2.517033684    
HB        0.2311660864        -3.618821586         1.552625257    
HB        0.1117710635        -3.972754567         3.286315313    
HB         1.693817818        -4.014309335         2.490284598    
C          1.920015367        -1.250305667         1.937184257    
O          2.407393378       -0.1813013795         2.317199044    
N          2.215660534        -1.771817373        0.7396919806    
H          1.778544260        -2.646082730        0.4860163982    
CA         3.137157394        -1.167729099       -0.2305463409    
HA         4.014146434       -0.8055972707        0.3090913843    
CB         3.600712954        -2.276183674        -1.185221591    
HB         2.753069908        -2.656344758        -1.757615520    
HB         4.345546517        -1.878798460        -1.876024855    
HB         4.050465547        -3.092453385       -0.6179643151    
C          2.553641762        0.4172543913E-01    -1.003632240    
O          3.309638220        0.7563458267        -1.671014030    
N          1.237694007        0.2834103283       -0.9011244533    
H         0.7028013215       -0.3444470663       -0.3128661580    
CA        0.4665331424         1.310936804        -1.616803766    
HA       -0.5810996970         1.141076827        -1.362686804    
CB        0.8278438898         2.695765639        -1.047521187    
HB         1.841192439         2.972951242        -1.339438254    
HB        0.1359379746         3.450551161        -1.421718441    
HB        0.7613529220         2.677867614        0.4123169413E-01
C         0.5321991047         1.220057697        -3.166025128    
O          1.150132095        0.3154170000        -3.741448899    
N        -0.1574704856         2.141487955        -3.854418288    
H        -0.6529136830         2.845696748        -3.324255712    
CH       -0.2400474677         2.209758731        -5.314620414    
HH       -0.6851086157         1.293747380        -5.708841966    
HH       -0.8565205114         3.058810133        -5.616476812    
HH        0.7577829637         2.329817599        -5.741829536    
    52
Energy=    -35.3093212065778    
HH        -2.394786920         3.710165949        0.3449035327E-01
CH        -2.953692331         2.776581887        0.8849317299E-01
HH        -2.877644054         2.249491910       -0.8615923649    
HH        -4.000736485         2.989987231        0.3003379689    
C         -2.390539613         1.909197087         1.192055721    
O         -1.474530055         2.326070160         1.900362507    
N         -2.936257710        0.7026408869         1.336394804    
H         -3.680687576        0.4412370241        0.7071989433    
CA        -2.496437136       -0.2871141347         2.324661618    
HA        -2.364202161        0.2216469556         3.281726716    
CB        -3.608378602        -1.329913262         2.502790194    
HB        -4.534521614       -0.8376531041         2.803376685    
HB        -3.772055293        -1.866269532         1.566632471    
HB        -3.324171710        -2.044756496         3.276358123    
C         -1.146816934       -0.9418185148         1.953877061    
O        -0.8021702201        -1.061229111        0.7731182695    
N        -0.3985667669        -1.395162755         2.967795036    
H        -0.7614979929        -1.270987755         3.902538546    
CA        0.9188664963        -2.035110251         2.849919303    
HA         1.365664906        -2.019216690         3.845606780    
CB        0.7362465783        -3.522127035         2.495816565    
HB        0.2512409937        -3.628522366         1.524350309    
HB        0.1153897626        -4.004572881         3.252155156    
HB         1.706916000        -4.020117534         2.474267441    
C          1.909051235        -1.246120518         1.956257387    
O          2.377057815       -0.1746696883         2.353318013    
N          2.225543184        -1.749934713        0.7564657304    
H          1.804429088        -2.627800486        0.4884961359    
CA         3.145221474        -1.119250905       -0.1988275451    
HA         4.006124779       -0.7387013893        0.3538725338    
CB         3.648039130        -2.211835917        -1.151929259    
HB         2.817564415        -2.609388702        -1.737516762    
HB         4.392495325        -1.793606064        -1.830726625    
HB         4.109385088        -3.019821536       -0.5821295593    
C          2.542994302        0.7970452016E-01   -0.9743478676    
O          3.289029516        0.8127107815        -1.632906678    
N          1.221244220        0.2918620006       -0.8837688185    
H         0.6954970937       -0.3490903123       -0.3014272766    
CA        0.4320444162         1.300457157        -1.606577250    
HA       -0.6127395120         1.106186944        -1.359027806    
CB        0.7557622450         2.694673968        -1.038240619    
HB         1.758623251         3.001651608        -1.336590947    
HB        0.3834361889E-01     3.427975282        -1.407405318    
HB        0.6973937960         2.674533862        0.5078113563E-01
C         0.5097501507         1.209384275        -3.155015071    
O          1.157958908        0.3230094165        -3.725476975    
N        -0.2026588550         2.109519836        -3.848360358    
H        -0.7215153528         2.799417772        -3.321690902    
CH       -0.2786532233         2.174104320        -5.309070611    
HH       -0.6940107111         1.244962182        -5.704972658    
HH       -0.9182717972         3.004236911        -5.615355715    
HH        0.7176651388         2.323381527        -5.730557695    
