    52
Energy=    -36.1555293799479    
HH        -3.769153275        0.6432869943        -1.139976228    
CH        -2.809238852        0.1332308054        -1.210184540    
HH        -2.122176055        0.7274300488        -1.811644306    
HH        -2.949149866       -0.8423980444        -1.674085706    
C         -2.240337542       -0.5042812732E-01    0.1767640384    
O         -1.158272466        0.4573391464        0.4713529365    
N         -2.952140365       -0.7883762719         1.027911524    
H         -3.824445671        -1.180492535        0.7051533963    
CA        -2.539099842        -1.064892871         2.406656722    
HA        -2.441399702       -0.1114113730         2.929688529    
CB        -3.643888209        -1.869242927         3.104861700    
HB        -4.578388911        -1.306432269         3.090458089    
HB        -3.790940878        -2.824881682         2.598978482    
HB        -3.361441332        -2.055542501         4.142021971    
C         -1.174015731        -1.786140715         2.454451246    
O         -1.002196159        -2.857118840         1.862805450    
N        -0.1989576629        -1.174406012         3.140165496    
H        -0.4375044436       -0.3143282837         3.615110860    
CA         1.213093895        -1.584458477         3.192703083    
HA         1.745638305       -0.7596135565         3.669266067    
CB         1.357119637        -2.790838962         4.136415635    
HB        0.8921642122        -3.672489104         3.694107013    
HB        0.8792800294        -2.573569949         5.092620081    
HB         2.413042569        -2.998154920         4.314197579    
C          1.909343058        -1.755382501         1.813422107    
O          2.921603008        -2.456977389         1.710475866    
N          1.383418054        -1.119189027        0.7555206358    
H         0.5348580533       -0.5894045228        0.9083303356    
CA         1.869252320        -1.236674918       -0.6285289298    
HA         2.857923486        -1.698368053       -0.6277315298    
CB        0.9133411044        -2.175875059        -1.376917361    
HB       -0.8639360746E-01    -1.741283090        -1.416453695    
HB         1.273712341        -2.331683764        -2.394604458    
HB        0.8664745597        -3.140326533       -0.8692249443    
C          2.015972529        0.1114483255        -1.373946198    
O          2.845917641        0.2110038422        -2.283716471    
N          1.253945990         1.141920909       -0.9768689922    
H         0.5775510481        0.9556089006       -0.2474904630    
CA         1.160516002         2.466505301        -1.610230593    
HA        0.3706241706         3.004900552        -1.083208507    
CB         2.460866451         3.247079454        -1.342263664    
HB         3.284563266         2.820889382        -1.915745327    
HB         2.337654623         4.292334044        -1.627210412    
HB         2.705083663         3.207364933       -0.2796582670    
C         0.7193880983         2.449322796        -3.099378622    
O         0.4347962748         1.396418966        -3.683733188    
N         0.6110434490         3.638228175        -3.709994945    
H         0.8433776668         4.461600297        -3.170585925    
CH        0.1881609982         3.833425719        -5.098070698    
HH       -0.8221175535         3.444270148        -5.241146578    
HH        0.1942742828         4.896620004        -5.346305663    
HH        0.8672576382         3.310153338        -5.774532633    
    52
Energy=    -33.5205243121115    
HH        -4.413207991         1.748395834       -0.5756339252    
CH        -3.354625101         1.592768680       -0.7804902452    
HH        -2.920062403         2.513029254        -1.169160107    
HH        -3.240824866        0.7958086607        -1.514454881    
C         -2.651975447         1.197130328        0.4984510227    
O         -1.717983812         1.874644570        0.9258975409    
N         -3.091535969        0.9690435076E-01     1.106221986    
H         -3.857233027       -0.4061655703        0.6829220584    
CA        -2.494377154       -0.4584329433         2.324100980    
HA        -2.305981966        0.3643361623         3.016966728    
CB        -3.510357662        -1.397884941         2.987875609    
HB        -4.432856285       -0.8558881689         3.201514063    
HB        -3.730427553        -2.238494357         2.327720049    
HB        -3.102340859        -1.779656222         3.924912484    
C         -1.146327112        -1.163835292         2.053953944    
O        -0.9543879493        -1.769424684        0.9951913813    
N        -0.2382351294        -1.111925660         3.037856805    
H        -0.5117891147       -0.6032178586         3.867301280    
CA         1.114055646        -1.696262174         3.070727589    
HA         1.580127843        -1.320563386         3.983547298    
CB         1.011783410        -3.218734178         3.255139203    
HB        0.5431360432        -3.678760128         2.384370443    
HB        0.4172484715        -3.444982529         4.141393742    
HB         2.009834559        -3.639750860         3.384646229    
C          2.075631542        -1.276381274         1.931082980    
O          3.061415847       -0.5767367353         2.181829105    
N          1.811336703        -1.696540379        0.6902816178    
H         0.9552443469        -2.222027359        0.5560930602    
CA         2.662574184        -1.465979429       -0.4827185194    
HA         3.706474863        -1.487565506       -0.1645414180    
CB         2.446047123        -2.637764165        -1.449194573    
HB         1.413514603        -2.646348341        -1.802013310    
HB         3.113412745        -2.535668861        -2.305984026    
HB         2.664020579        -3.580627416       -0.9454188229    
C          2.431455490       -0.1043624824        -1.180496281    
O          3.279041674        0.3242606498        -1.971154265    
N          1.314774755        0.5757174345       -0.8775979515    
H         0.6928962682        0.1454469749       -0.2095879904    
CA        0.8505035564         1.826968201        -1.498782190    
HA       -0.1351420161         2.034208908        -1.083078106    
CB         1.755604509         2.984682230        -1.038598948    
HB         2.742428374         2.899560844        -1.494482720    
HB         1.317190271         3.941226929        -1.324341648    
HB         1.858725535         2.965033908        0.4735682003E-01
C         0.6320596375         1.757900552        -3.034559102    
O         0.8179599002        0.7157345426        -3.675080142    
N         0.1795809667         2.871701103        -3.628512932    
H         0.3454155522E-01     3.684840312        -3.044913441    
CH       -0.1142219417         3.000909611        -5.056954964    
HH       -0.8937332169         2.292640175        -5.345530681    
HH       -0.4583031965         4.012935517        -5.279312300    
HH        0.7833090706         2.797194966        -5.644760529    
    52
Energy=    -35.3093212065754    
HH        -3.923670292         3.085968500        0.3431212304    
CH        -2.885878662         2.846063075        0.1147455891    
HH        -2.306351183         3.765700254        0.4203985885E-01
HH        -2.839259728         2.308798467       -0.8315329806    
C         -2.323432396         1.975622350         1.216260373    
O         -1.385346574         2.377162978         1.904239507    
N         -2.894539647        0.7836021250         1.381621116    
H         -3.656063073        0.5341520973        0.7682272815    
CA        -2.460305004       -0.2073028288         2.371204914    
HA        -2.299034978        0.3067956149         3.320937667    
CB        -3.592952055        -1.221977944         2.578855334    
HB        -4.501779068       -0.7053557500         2.891182321    
HB        -3.785920021        -1.762734017         1.650843685    
HB        -3.311690685        -1.936325721         3.353955998    
C         -1.133245327       -0.8969234557         1.982708149    
O        -0.8127532161        -1.035039993        0.7971955139    
N        -0.3777089453        -1.358622026         2.987411178    
H        -0.7207857505        -1.217526046         3.927237847    
CA        0.9220664372        -2.030456074         2.852204470    
HA         1.386929344        -2.016130105         3.839611283    
CB        0.6983859382        -3.515885701         2.515420346    
HB        0.1936509055        -3.619566806         1.553760404    
HB        0.8010295224E-01    -3.976748574         3.287169530    
HB         1.656598927        -4.036773697         2.481338188    
C          1.914219289        -1.273081329         1.933717430    
O          2.414214343       -0.2094203317         2.312299537    
N          2.197236869        -1.794987535        0.7332963079    
H          1.750960505        -2.665067638        0.4811235043    
CA         3.114104331        -1.194762500       -0.2440671908    
HA         3.993462354       -0.8296360386        0.2896574122    
CB         3.574028128        -2.307420654        -1.195609314    
HB         2.724097017        -2.690557553        -1.762594693    
HB         4.315748009        -1.912966710        -1.891421646    
HB         4.026512274        -3.120887086       -0.6265021085    
C          2.526248467        0.1101599944E-01    -1.020035712    
O          3.277272050        0.7202910092        -1.698606982    
N          1.211662468        0.2550519216       -0.9080143838    
H         0.6816148807       -0.3680726919       -0.3104218422    
CA        0.4334101088         1.275408590        -1.626170420    
HA       -0.6110159057         1.108035538        -1.358297928    
CB        0.7998051352         2.666672983        -1.076826861    
HB         1.804049775         2.947247829        -1.395807806    
HB        0.9321711949E-01     3.413315617        -1.440091275    
HB        0.7605549824         2.657715543        0.1320069395E-01
C         0.4811352572         1.168597979        -3.174816906    
O          1.098082752        0.2621030387        -3.748318854    
N        -0.2223661404         2.078986649        -3.863857218    
H        -0.7153997696         2.785626293        -3.334583941    
CH       -0.3230573853         2.132193601        -5.323532193    
HH       -0.7670789930         1.209567174        -5.703230327    
HH       -0.9484830165         2.974371489        -5.626223095    
HH        0.6687474947         2.254161892        -5.764022994    
