    52
 Energy=    -34.6022075798548
HH           -6.8492557850       -2.1852870860        0.0352034506
CH           -5.9071953950       -2.6748932150        0.2791157009
HH           -6.1069731080       -3.6445684030        0.7334304180
HH           -5.3220464020       -2.8133641250       -0.6291888827
C            -5.1253290140       -1.8200183840        1.2513573460
O            -5.5873602100       -0.7463190644        1.6384951890
N            -3.9440720920       -2.2984481510        1.6399114980
H            -3.6493932620       -3.1844977340        1.2545627860
CA           -3.0190796490       -1.6311464220        2.5635789910
HA           -3.2069932710       -0.5558533381        2.5411723850
CB           -3.2991901650       -2.1364136640        3.9871448740
HB           -3.1154821150       -3.2104355530        4.0457970590
HB           -2.6490153810       -1.6246144590        4.6980104940
HB           -4.3373667710       -1.9350196640        4.2550041630
C            -1.5415576890       -1.8481350110        2.1686358310
O            -1.2048626640       -2.8176991010        1.4802280770
N            -0.6597701374       -0.9466009007        2.6233855780
H            -1.0198395840       -0.1982198264        3.2004322310
CA            0.7939020748       -0.9600653324        2.3877391870
HA            1.1622209520        0.0114823103        2.7218288860
CB            1.4446103260       -2.0074373780        3.3075947580
HB            1.1519434040       -3.0118627470        2.9995128430
HB            1.1303648970       -1.8421253490        4.3390079010
HB            2.5307567740       -1.9218719790        3.2561558380
C             1.2165292890       -1.0519000840        0.8970440028
O             2.2625581540       -1.6193300290        0.5644388494
N             0.4042539414       -0.4935714156       -0.0104793120
H            -0.4372000568       -0.0461216382        0.3239647564
CA            0.5995179858       -0.5761918534       -1.4640456490
HA            0.9167729833       -1.5910954130       -1.7105737920
CB           -0.7618295745       -0.3388707109       -2.1311255010
HB           -0.6679427777       -0.4630676613       -3.2108205580
HB           -1.1123494600        0.6726019664       -1.9196181250
HB           -1.4900568310       -1.0605879450       -1.7578196100
C             1.6804325670        0.3820269692       -2.0209915390
O             2.1597526100        0.1728835153       -3.1407015580
N             2.0770778430        1.4015273010       -1.2428487220
H             1.6318250760        1.4786164360       -0.3407831328
CA            3.0239675820        2.4701357080       -1.6021241630
HA            3.0210633690        3.1814655590       -0.7741704443
CB            4.4454584480        1.8790977320       -1.6530401530
HB            4.5536236130        1.2258721930       -2.5194729030
HB            4.6415058700        1.3059822650       -0.7455661518
HB            5.1839014040        2.6785701740       -1.7198105550
C             2.6310862300        3.2997305510       -2.8556894680
O             1.5606238380        3.1170184200       -3.4491842430
N             3.4837133270        4.2628021390       -3.2351057940
H             4.3327868980        4.3709341630       -2.6964132450
CH            3.2820688090        5.1630324960       -4.3721247950
HH            4.1300299920        5.8443003100       -4.4663910190
HH            2.3726548210        5.7505558930       -4.2294171950
HH            3.1891586160        4.5869973380       -5.2952465800
    52
 Energy=    -34.2706748148741
HH           -6.2876500400       -1.8050571900       -0.5883231183
CH           -5.6458318440       -2.4512628440        0.0093197974
HH           -6.2602476890       -3.1140669690        0.6174096143
HH           -5.0123766210       -3.0453124810       -0.6482861335
C            -4.7748370280       -1.6085761110        0.9139823842
O            -4.8640851280       -0.3809413248        0.8863214886
N            -3.9334023560       -2.2710356700        1.7068971270
H            -3.9252199510       -3.2781082580        1.6371058880
CA           -2.9919077490       -1.6576899440        2.6512907150
HA           -3.1558373190       -0.5786996979        2.6697915530
CB           -3.2963916970       -2.1891813570        4.0588814160
HB           -3.1351384810       -3.2677894830        4.0948288470
HB           -2.6420022280       -1.7073538420        4.7866990350
HB           -4.3329879750       -1.9717156700        4.3206416870
C            -1.5186579660       -1.8855861590        2.2479408580
O            -1.1911051970       -2.8588367530        1.5602709230
N            -0.6287995308       -0.9883372669        2.6955555970
H            -0.9799833283       -0.2383371293        3.2759213140
CA            0.8208288958       -1.0020009900        2.4363592470
HA            1.1956879670       -0.0324842466        2.7690673410
CB            1.4860138620       -2.0547982170        3.3394993510
HB            1.1875912130       -3.0573799160        3.0310000100
HB            1.1891882310       -1.8948255240        4.3768926000
HB            2.5712032810       -1.9696436610        3.2703137780
C             1.2172198830       -1.0867096590        0.9379475460
O             2.2599030350       -1.6477560130        0.5847154086
N             0.3854295680       -0.5302077491        0.0470655982
H            -0.4516294731       -0.0876193647        0.3985129572
CA            0.5504444151       -0.6119794176       -1.4101671950
HA            0.8709396947       -1.6243152180       -1.6629937850
CB           -0.8271428477       -0.3869392599       -2.0476753230
HB           -0.7558099646       -0.5115499902       -3.1290363130
HB           -1.1815635980        0.6217413064       -1.8294709550
HB           -1.5410314220       -1.1142488280       -1.6578179990
C             1.6112294500        0.3548098299       -1.9905153360
O             2.0652117570        0.1512661369       -3.1217582390
N             2.0193748840        1.3753919600       -1.2197756360
H             1.5954108600        1.4474305180       -0.3070981903
CA            2.9501569800        2.4512045740       -1.5990976680
HA            2.9621281840        3.1607709640       -0.7697132032
CB            4.3740215920        1.8700332310       -1.6851446720
HB            4.4659621930        1.2193482020       -2.5553544580
HB            4.5955246390        1.2964133910       -0.7838672658
HB            5.1052064640        2.6746854610       -1.7677025340
C             2.5219526220        3.2807163940       -2.8410976350
O             1.4390600790        3.0917841820       -3.4095574570
N             3.3586516500        4.2505540760       -3.2383246230
H             4.2194526530        4.3634759100       -2.7195978610
CH            3.1239173140        5.1517958810       -4.3681697430
HH            3.9646497020        5.8391952320       -4.4808671300
HH            2.2140639700        5.7326165290       -4.2026487950
HH            3.0132146940        4.5771122250       -5.2901708140
    52
 Energy=    -35.3503472283995
HH           -4.6166845720       -0.5405290915       -1.3303699840
CH           -4.7598533990       -1.2529949280       -0.5188182932
HH           -5.7762584470       -1.1712862530       -0.1357149343
HH           -4.5905859550       -2.2640736490       -0.8870945223
C            -3.7814623980       -0.9575656135        0.5949229081
O            -2.9862437680       -0.0234516623        0.4902150668
N            -3.8299437840       -1.7553462440        1.6610847570
H            -4.5057241690       -2.5049449760        1.6661136180
CA           -2.9347899270       -1.6244181230        2.8132296550
HA           -2.9835552790       -0.5917566453        3.1647876290
CB           -3.4439927930       -2.5250574780        3.9463829030
HB           -3.4248756480       -3.5701849230        3.6331203180
HB           -2.8071597830       -2.4053857360        4.8240885320
HB           -4.4649421230       -2.2466325160        4.2118101370
C            -1.4687596370       -1.9355282780        2.4397134430
O            -1.1821923960       -2.9483650260        1.7921000840
N            -0.5438582587       -1.0606271950        2.8574148110
H            -0.8658255265       -0.2724573763        3.4026785540
CA            0.8999830108       -1.1234135100        2.5789002530
HA            1.3070094030       -0.1607407429        2.8930807580
CB            1.5439719720       -2.1812036430        3.4915899280
HB            1.2175693030       -3.1796124810        3.1983693280
HB            1.2590757190       -2.0000311350        4.5288612260
HB            2.6305230980       -2.1257025920        3.4144001360
C             1.2882528090       -1.2432836090        1.0793812240
O             2.3793695690       -1.7201334920        0.7494556292
N             0.4144096250       -0.8066255843        0.1610647973
H            -0.4699428529       -0.4380803208        0.4834107458
CA            0.6124943149       -0.9238918675       -1.2903111260
HA            1.0613109570       -1.8969214430       -1.4982629290
CB           -0.7680980696       -0.8994287886       -1.9589085600
HB           -0.6592776637       -1.0627099580       -3.0318527510
HB           -1.2469254970        0.0669438795       -1.7945008680
HB           -1.3956109490       -1.6905914290       -1.5460930290
C             1.5555980330        0.1446471612       -1.8946014490
O             2.0535676730       -0.0444206962       -3.0097603100
N             1.8189301620        1.2371293070       -1.1601398990
H             1.3705771700        1.2913806240       -0.2579505882
CA            2.6162359440        2.4051604370       -1.5693437420
HA            2.5239253990        3.1420573780       -0.7693588471
CB            4.1026036410        2.0032794270       -1.6110499620
HB            4.2914061990        1.3359018830       -2.4525210960
HB            4.3761173510        1.4971782350       -0.6839806529
HB            4.7297404000        2.8890609770       -1.7159569000
C             2.1128649390        3.1264343850       -2.8501364760
O             1.0743343160        2.7809419720       -3.4276634870
N             2.8292550860        4.1784509930       -3.2726226180
H             3.6581399340        4.4186608630       -2.7453106800
CH            2.5066832780        4.9995512270       -4.4412190740
HH            3.2565937620        5.7828756360       -4.5680440970
HH            1.5278595320        5.4666386330       -4.3134929810
HH            2.4881605950        4.3811037860       -5.3410965830
    52
 Energy=    -35.3503472283965
HH           -4.6166878260       -0.5405340475       -1.3303701578
CH           -4.7598558162       -1.2529991113       -0.5188176433
HH           -5.7762607228       -1.1712906681       -0.1357138491
HH           -4.5905879546       -2.2640781176       -0.8870928988
C            -3.7814644134       -0.9575680339        0.5949227419
O            -2.9862465911       -0.0234535353        0.4902136307
N            -3.8299445641       -1.7553477490        1.6610853315
H            -4.5057243751       -2.5049469906        1.6661152665
CA           -2.9347900804       -1.6244179449        2.8132295531
HA           -2.9835556225       -0.5917560666        3.1647863280
CB           -3.4439919629       -2.5250561303        3.9463841689
HB           -3.4248745375       -3.5701839472        3.6331228450
HB           -2.8071585334       -2.4053830420        4.8240893109
HB           -4.4649412681       -2.2466312773        4.2118116138
C            -1.4687598527       -1.9355279490        2.4397129430
O            -1.1821926802       -2.9483645849        1.7920993780
N            -0.5438584192       -1.0606269182        2.8574143063
H            -0.8658255811       -0.2724572687        3.4026783594
CA            0.8999828177       -1.1234132132        2.5788995596
HA            1.3070092550       -0.1607404555        2.8930800316
CB            1.5439719134       -2.1812033451        3.4915891358
HB            1.2175690449       -3.1796121743        3.1983687272
HB            1.2590759643       -2.0000307030        4.5288604910
HB            2.6305230269       -2.1257024217        3.4143990380
C             1.2882524145       -1.2432832265        1.0793804792
O             2.3793690631       -1.7201332257        0.7494546858
N             0.4144091915       -0.8066249355        0.1610642206
H            -0.4699432194       -0.4380796436        0.4834103120
CA            0.6124937929       -0.9238908540       -1.2903117382
HA            1.0613099784       -1.8969205686       -1.4982638735
CB           -0.7680986009       -0.8994268704       -1.9589091143
HB           -0.6592783119       -1.0627076698       -3.0318533697
HB           -1.2469255762        0.0669459542       -1.7945010083
HB           -1.3956118340       -1.6905893856       -1.5460938887
C             1.5555979763        0.1446479462       -1.8946017250
O             2.0535674423       -0.0444197254       -3.0097606968
N             1.8189306550        1.2371297001       -1.1601397870
H             1.3705778193        1.2913808742       -0.2579503906
CA            2.6162368180        2.4051606593       -1.5693433503
HA            2.5239266130        3.1420574349       -0.7693582637
CB            4.1026043596        2.0032791039       -1.6110498197
HB            4.2914065674        1.3359016444       -2.4525210972
HB            4.3761179866        1.4971776363       -0.6839806376
HB            4.7297414401        2.8890604392       -1.7159566623
C             2.1128659106        3.1264350586       -2.8501358602
O             1.0743347296        2.7809435501       -3.4276624122
N             2.8292567772        4.1784510409       -3.2726223164
H             3.6581420399        4.4186602364       -2.7453107226
CH            2.5066852088        4.9995514590       -4.4412186987
HH            3.2565963135        5.7828752091       -4.5680441077
HH            1.5278619158        5.4666396971       -4.3134922223
HH            2.4881616071        4.3811039534       -5.3410961435
    52
 Energy=    -34.5885397206757
HH           -5.4250547092       -0.3944512045       -0.6767185402
CH           -4.7961553563       -1.2690898237       -0.5169874513
HH           -5.4248499568       -2.1183605435       -0.2515866441
HH           -4.2459226818       -1.5017728660       -1.4275756446
C            -3.8101565926       -0.9704934079        0.5910599731
O            -3.0152662250       -0.0388531537        0.4660559566
N            -3.8465684743       -1.7519243199        1.6707039377
H            -4.5208475928       -2.5022117044        1.6965930427
CA           -2.9413519656       -1.5999250116        2.8125729480
HA           -2.9864539815       -0.5605834711        3.1444258204
CB           -3.4421567321       -2.4776301751        3.9672678613
HB           -3.4256550293       -3.5287760756        3.6746552775
HB           -2.7986261646       -2.3408975005        4.8375752528
HB           -4.4609616200       -2.1935588420        4.2349731928
C            -1.4779798701       -1.9191329417        2.4352168463
O            -1.1982462603       -2.9337738199        1.7874456004
N            -0.5472685153       -1.0500633026        2.8522567994
H            -0.8640603937       -0.2600863558        3.3979579727
CA            0.8967619053       -1.1239917833        2.5771551444
HA            1.3101349688       -0.1640004317        2.8912532465
CB            1.5305228721       -2.1853447619        3.4928576761
HB            1.1974996585       -3.1816745829        3.2000018081
HB            1.2442497198       -2.0007752325        4.5291520099
HB            2.6176558576       -2.1379912330        3.4184822999
C             1.2885454862       -1.2485659286        1.0789832092
O             2.3786177446       -1.7305075770        0.7530329539
N             0.4192058140       -0.8098337324        0.1574866796
H            -0.4646095383       -0.4375992166        0.4768349187
CA            0.6209906615       -0.9296761483       -1.2931436026
HA            1.0702634993       -1.9030801233       -1.4983362183
CB           -0.7580653173       -0.9066119177       -1.9648378277
HB           -1.2381476151        0.0594013287       -1.8018787345
HB           -0.6468186603       -1.0704686310       -3.0374498320
HB           -1.3855367229       -1.6981693396       -1.5527858705
C             1.5657893689        0.1376081178       -1.8970334765
O             2.0640067045       -0.0521535796       -3.0119637816
N             1.8303045812        1.2297752485       -1.1625265870
H             1.3817896216        1.2846381295       -0.2604584309
CA            2.6293351681        2.3967241609       -1.5714860266
HA            2.5376833701        3.1337965869       -0.7715868208
CB            4.1151859907        1.9928688098       -1.6125623259
HB            4.7435399559        2.8778115911       -1.7172657797
HB            4.3876516198        1.4864649142       -0.6853501620
HB            4.3034483540        1.3251916160       -2.4539168834
C             2.1274452701        3.1185932390       -2.8525255243
O             1.0886504804        2.7744956026       -3.4304098374
N             2.8454472620        4.1695844193       -3.2748284513
H             3.6744680344        4.4086874544       -2.7472274242
CH            2.5244479763        4.9910379462       -4.4436099171
HH            1.5462249813        5.4594915341       -4.3162851275
HH            3.2754902494        5.7733124552       -4.5702179425
HH            2.5054030985        4.3725453898       -5.3434455634
    52
 Energy=    -35.3503472283973
HH           -5.7815643312       -1.1445564391       -0.1378682138
CH           -4.7650149680       -1.2331229814       -0.5190598701
HH           -4.6000329202       -2.2469356695       -0.8817219588
HH           -4.6173049877       -0.5256653763       -1.3341712243
C            -3.7868166974       -0.9364302894        0.5945147749
O            -2.9870174662       -0.0066710525        0.4860056390
N            -3.8406082273       -1.7282979666        1.6648219840
H            -4.5199514632       -2.4746430792        1.6728479122
CA           -2.9464828656       -1.5955032492        2.8175517246
HA           -2.9908379404       -0.5607692509        3.1635560293
CB           -3.4615747992       -2.4876839947        3.9547275735
HB           -3.4469815733       -3.5345394741        3.6470411506
HB           -2.8254298587       -2.3663769010        4.8327076341
HB           -4.4815654334       -2.2030095474        4.2171950408
C            -1.4814182200       -1.9155488416        2.4478152137
O            -1.1987484864       -2.9331598553        1.8059992203
N            -0.5529628357       -1.0428421721        2.8622094211
H            -0.8719546987       -0.2502679398        3.4028177931
CA            0.8909585626       -1.1139603409        2.5861237962
HA            1.3021100274       -0.1515755272        2.8957827528
CB            1.5286108431       -2.1699332314        3.5053435841
HB            1.1978822616       -3.1683246130        3.2169506486
HB            1.2431031366       -1.9819035806        4.5412254753
HB            2.6155223546       -2.1200016893        3.4294345140
C             1.2807880925       -1.2436349053        1.0878257572
O             2.3700935258       -1.7274051386        0.7620151921
N             0.4103392630       -0.8077166001        0.1659411280
H            -0.4727086729       -0.4332701524        0.4850461736
CA            0.6099299891       -0.9336285546       -1.2845038758
HA            1.0544098706       -1.9098687905       -1.4866412475
CB           -0.7695772429       -0.9061619931       -1.9552211700
HB           -1.2440372241        0.0633327110       -1.7966353071
HB           -0.6600072268       -1.0756538722       -3.0271254446
HB           -1.4014324544       -1.6921328205       -1.5391247354
C             1.5589637784        0.1271962666       -1.8930863432
O             2.0576157065       -0.0701536475       -3.0065040400
N             1.8264423221        1.2223011463       -1.1640490656
H             1.3770685278        1.2834712951       -0.2628107167
CA            2.6298750340        2.3843440297       -1.5782871653
HA            2.5399311040        3.1259092621       -0.7823567204
CB            4.1143727308        1.9751949742       -1.6157080089
HB            4.7458632161        2.8574194643       -1.7244032527
HB            4.3841568759        1.4727317445       -0.6855720583
HB            4.3011971092        1.3024689443       -2.4533530408
C             2.1317630487        3.1011871315       -2.8636154864
O             1.0924241836        2.7575669323       -3.4408053990
N             2.8537484770        4.1475318412       -3.2906378321
H             3.6830149585        4.3866008337       -2.7634074521
CH            2.5367485236        4.9639360874       -4.4640392718
HH            1.5599756719        5.4363362305       -4.3402110719
HH            3.2905546013        5.7430074057       -4.5939304776
HH            2.5165670922        4.3408130412       -5.3606496820
    52
 Energy=    -35.3503472283984
HH           -5.7815637521       -1.1445550892       -0.1378685446
CH           -4.7650143545       -1.2331216779       -0.5190601015
HH           -4.6000324419       -2.2469342596       -0.8817225420
HH           -4.6173041305       -0.5256637989       -1.3341711747
C            -3.7868161681       -0.9364295793        0.5945147696
O            -2.9870166711       -0.0066705245        0.4860060113
N            -3.8406080677       -1.7282975575        1.6648217409
H            -4.5199515525       -2.4746424437        1.6728473847
CA           -2.9464828624       -1.5955033680        2.8175516698
HA           -2.9908379970       -0.5607695309        3.1635564407
CB           -3.4615748956       -2.4876846404        3.9547270564
HB           -3.4469815788       -3.5345399841        3.6470401734
HB           -2.8254300309       -2.3663779088        4.8327072220
HB           -4.4815655671       -2.2030103502        4.2171945537
C            -1.4814181692       -1.9155488000        2.4478152202
O            -1.1987483241       -2.9331596971        1.8059990911
N            -0.5529628797       -1.0428421273        2.8622096343
H            -0.8719548340       -0.2502680141        3.4028181267
CA            0.8909585495       -1.1139601918        2.5861241631
HA            1.3021099557       -0.1515753828        2.8957832187
CB            1.5286107209       -2.1699331367        3.5053439612
HB            1.1978821843       -3.1683244901        3.2169508766
HB            1.2431028232       -1.9819035809        4.5412258185
HB            2.6155222456       -2.1200015791        3.4294350833
C             1.2807882348       -1.2436346963        1.0878261580
O             2.3700937838       -1.7274047498        0.7620157096
N             0.4103394031       -0.8077165975        0.1659414287
H            -0.4727086137       -0.4332702497        0.4850463749
CA            0.6099301470       -0.9336288782       -1.2845035458
HA            1.0544103091       -1.9098690443       -1.4866406431
CB           -0.7695770993       -0.9061629318       -1.9552208427
HB           -1.2440373303        0.0633317060       -1.7966353283
HB           -0.6600070373       -1.0756551753       -3.0271250552
HB           -1.4014321081       -1.6921337749       -1.5391241212
C             1.5589636599        0.1271960208       -1.8930863159
O             2.0576153869       -0.0701539436       -3.0065040928
N             1.8264422426        1.2223009968       -1.1640491993
H             1.3770686319        1.2834711670       -0.2628107568
CA            2.6298749347        2.3843438427       -1.5782874708
HA            2.5399311114        3.1259091049       -0.7823570459
CB            4.1143726258        1.9751947611       -1.6157084474
HB            4.7458631039        2.8574192251       -1.7244039372
HB            4.3841568950        1.4727316861       -0.6855724472
HB            4.3011968829        1.3024685813       -2.4533533860
C             2.1317628710        3.1011869624       -2.8636157566
O             1.0924242095        2.7575664981       -3.4408058767
N             2.8537479980        4.1475319928       -3.2906378361
H             3.6830142778        4.3866012380       -2.7634072548
CH            2.5367479545        4.9639363179       -4.4640392029
HH            1.5599752466        5.4363366961       -4.3402107589
HH            3.2905541842        5.7430074604       -4.5939305734
HH            2.5165661876        4.3408133012       -5.3606496286
    52
 Energy=    -35.0747126046833
HH           -4.7541001043        0.4093269512       -0.6136108466
CH           -3.7959609966       -0.0395536267       -0.8725741600
HH           -3.2801075008        0.5928334403       -1.5942193294
HH           -3.9615498227       -1.0260594306       -1.3038586661
C            -2.9548786919       -0.1756511051        0.3755351608
O            -1.8536452029        0.3716568166        0.4432098147
N            -3.4628653863       -0.9154297654        1.3612922489
H            -4.3674540927       -1.3403124975        1.2196322957
CA           -2.7872806820       -1.1444267862        2.6412349779
HA           -2.6133450943       -0.1744046117        3.1114047175
CB           -3.7197105567       -1.9463191425        3.5592195434
HB           -4.6524618137       -1.4006566747        3.7092514515
HB           -3.9386183389       -2.9193556734        3.1164029515
HB           -3.2402116424       -2.0960831178        4.5276510133
C            -1.4221716265       -1.8401192564        2.4471119371
O            -1.3396267581       -2.9198652503        1.8522912099
N            -0.3519655951       -1.1991501557        2.9352769745
H            -0.5204534567       -0.3327590633        3.4283634425
CA            1.0562398235       -1.5869570057        2.7572554469
HA            1.6445109685       -0.7481211928        3.1332609044
CB            1.3741871071       -2.7783969641        3.6769573223
HB            0.8606561310       -3.6735644103        3.3247022008
HB            1.0537364137       -2.5572115343        4.6959279878
HB            2.4486503417       -2.9656421518        3.6830728320
C             1.5304285592       -1.7676853241        1.2881526325
O             2.5946236668       -2.3484645859        1.0496512979
N             0.7740312184       -1.2637423969        0.3014589612
H            -0.0946977457       -0.8090185163        0.5544404810
CA            1.0698590197       -1.3915880094       -1.1334804377
HA            1.7755743149       -2.2112879194       -1.2774593618
CB           -0.2281136566       -1.7825152026       -1.8528511480
HB           -0.9456329307       -0.9635601608       -1.8031728378
HB           -0.0151222583       -2.0000688832       -2.9002156637
HB           -0.6583519347       -2.6718400637       -1.3899709512
C             1.7198674480       -0.1352074726       -1.7613935063
O             2.2373080873       -0.2130471459       -2.8809184440
N             1.7194375855        0.9983717650       -1.0421663361
H             1.2844808987        0.9549386218       -0.1329529188
CA            2.1915650235        2.3224123331       -1.4796129241
HA            1.9358080634        3.0229484268       -0.6825111876
CB            3.7298254517        2.3047210196       -1.5553789373
HB            4.0611128767        1.6939207430       -2.3957700797
HB            4.1122637325        3.3177123536       -1.6839258411
HB            4.1421604136        1.8969626567       -0.6312167956
C             1.4963851917        2.8800083524       -2.7523541490
O             0.5793959719        2.2698098192       -3.3163420119
N             1.9030798318        4.0828162479       -3.1840081659
H             2.6457659063        4.5355794684       -2.6680064131
CH            1.3588583842        4.7857170232       -4.3474476568
HH            0.2929974229        4.9768555325       -4.2060989579
HH            1.8724368684        5.7394993677       -4.4837533348
HH            1.4930794664        4.1819739552       -5.2474867382
    52
 Energy=    -36.1555293799486
HH           -3.5964531289        1.6150279607       -0.6140747328
CH           -2.7944030302        0.9171223028       -0.8510674563
HH           -2.0427035552        1.4168834576       -1.4610416896
HH           -3.2015784463        0.0677247425       -1.3982082061
C            -2.1639461277        0.4289213897        0.4315819956
O            -0.9707517242        0.6382505284        0.6505419748
N            -2.9513380143       -0.2371738127        1.2753911958
H            -3.9167474143       -0.3780061672        1.0165563868
CA           -2.4943631947       -0.7790995568        2.5581588053
HA           -2.1280035540        0.0505228355        3.1662228249
CB           -3.6913045310       -1.4011803570        3.2898510082
HB           -4.4638257934       -0.6468137454        3.4460456848
HB           -4.1044020122       -2.2241192718        2.7042660343
HB           -3.3697626579       -1.7815592793        4.2604734368
C            -1.3396746843       -1.7871739423        2.3673241068
O            -1.4791133595       -2.7814457080        1.6472259395
N            -0.1906596713       -1.5053025976        2.9961918739
H            -0.1760012326       -0.6843112506        3.5860814423
CA            1.0834282203       -2.2240061130        2.8382104006
HA            1.8360151204       -1.6096946034        3.3355224783
CB            1.0216881357       -3.5460867974        3.6224179709
HB            0.3241253293       -4.2349020375        3.1448542197
HB            0.6957316247       -3.3560187278        4.6458875268
HB            2.0102309784       -4.0059588343        3.6517492975
C             1.5940322184       -2.3621523062        1.3765014303
O             2.3985611567       -3.2523873992        1.0803288761