          52
Energy of minimum      1=    -12.94781157     first found at step      428 after               230215 function calls
HH31       -3.7127002579        2.1437994392       -0.4956037790
CH3        -3.4146032064        2.7271098802       -1.3651027262
HH32       -3.6513711531        3.7751563622       -1.1934699458
HH33       -3.9423357676        2.3702550939       -2.2480472604
C          -1.9270970634        2.5928712614       -1.5888687634
O          -1.4808157480        2.4538674760       -2.7220174601
N          -1.1487772507        2.6129676136       -0.5109801738
H          -1.5994766564        2.5859409801        0.3953045469
CA          0.3152177457        2.6241906873       -0.5486535170
HA          0.6212029362        3.2210830830       -1.4097502157
CB          0.8282356459        3.3534972388        0.7009463895
HB1         0.4297189951        4.3683844026        0.7268208250
HB2         0.5149614223        2.8246514041        1.5992593332
HB3         1.9175868189        3.4030035583        0.6772857001
C           0.9211247533        1.2183204316       -0.7649707557
O           1.6738317298        0.7159276909        0.0700540928
N           0.5755743702        0.5814200567       -1.8898889209
H          -0.0806817519        1.0720119625       -2.4898440699
CA          1.0396326977       -0.7356791812       -2.3497341668
HA          0.3762963349       -1.0245200399       -3.1665170138
CB          2.4413140316       -0.6057222210       -2.9670056658
HB1         3.1585177705       -0.2696462334       -2.2170376834
HB2         2.7594460510       -1.5709423248       -3.3632606784
HB3         2.4175635207        0.1182226158       -3.7826305630
C           0.9002317926       -1.8706820249       -1.3111946390
O          -0.1210326241       -2.5523615533       -1.2891434986
N           1.8887351087       -2.0594615342       -0.4293690967
H           2.6611589434       -1.4108461796       -0.4496122121
CA          1.7998097934       -2.9900481610        0.7017136811
HA          1.5360149373       -3.9794818850        0.3235103579
CB          3.1811901400       -3.0727113104        1.3619816517
HB1         3.4713812539       -2.0954755483        1.7508844518
HB2         3.9213012038       -3.4100623609        0.6353785998
HB3         3.1463316828       -3.7867418877        2.1862786123
C           0.7091499770       -2.5840976390        1.7173022684
O           0.1247108865       -3.4422080201        2.3711373293
N           0.3915411980       -1.2874564670        1.7959090276
H           0.9469155265       -0.6395313504        1.2486744060
CA         -0.7899990450       -0.7414924415        2.4654382303
HA         -1.2874285440       -1.5452065531        3.0108306295
CB         -0.3370022059        0.2934842640        3.5038642520
HB1         0.1984132018        1.1048505517        3.0149602711
HB2         0.3210736198       -0.1815437032        4.2323692888
HB3        -1.2060845265        0.6977387515        4.0243289509
C          -1.8213398057       -0.2258016554        1.4343325132
O          -2.3477575656        0.8824134895        1.5521833987
N          -2.0584717152       -1.0146337736        0.3768572861
H          -1.5305091263       -1.8775050710        0.3103498627
CH3        -3.0034830162       -0.7394551986       -0.7015895984
HH31       -2.5264040790       -0.1239887092       -1.4644356935
HH32       -3.8828343448       -0.2247017214       -0.3105456367
HH33       -3.3179786358       -1.6791635457       -1.1586822225
          52
Energy of minimum      2=    -10.23035521     first found at step      335 after               173094 function calls
HH31        0.8545634631        0.9043728264        3.5488658269
CH3        -0.0718297990        1.1063475324        4.0846415500
HH32       -0.0857170184        0.5472053487        5.0191069093
HH33       -0.1518518169        2.1716694026        4.2908295705
C          -1.2419708298        0.6757487209        3.2338977187
O          -2.0510877943       -0.1434040039        3.6546311285
N          -1.3210604710        1.2002125566        2.0148317896
H          -0.5538957670        1.7830399900        1.6972320535
CA         -2.3431195545        0.8500825549        1.0294822651
HA         -3.2910297999        0.7050268361        1.5507890058
CB         -2.5230979314        2.0349138730        0.0694296363
HB1        -3.2950786444        1.7987836678       -0.6638851957
HB2        -1.5882183074        2.2403607813       -0.4512547360
HB3        -2.8241890997        2.9213974040        0.6286046348
C          -2.0004880486       -0.4847450975        0.3345905665
O          -1.6955525610       -0.5176652999       -0.8587696289
N          -2.0093528494       -1.5722112704        1.1167235358
H          -2.2273701761       -1.3952100711        2.0926991637
CA         -1.6304922616       -2.9567638084        0.7881127273
HA         -1.6843263786       -3.5167667581        1.7231602144
CB         -2.6857023913       -3.5747531044       -0.1410393647
HB1        -3.6740201973       -3.4904700357        0.3123464615
HB2        -2.4584048876       -4.6299227911       -0.2985351212
HB3        -2.6882185188       -3.0647371056       -1.1051099657
C          -0.1834049363       -3.1597419713        0.2855783502
O           0.5676944813       -3.9194953615        0.8889431534
N           0.2121887155       -2.4741766770       -0.7879316530
H          -0.4847719104       -1.8820391002       -1.2233430256
CA          1.5610243229       -2.4802014068       -1.3614464697
HA          2.2501183852       -2.9299436931       -0.6443517082
CB          1.5383288622       -3.3659832140       -2.6145838207
HB1         1.1982337461       -4.3686861799       -2.3521221565
HB2         2.5437030908       -3.4351319046       -3.0323451446
HB3         0.8694359261       -2.9394921862       -3.3630078091
C           2.1096121149       -1.0662876938       -1.6632667785
O           3.2477887017       -0.9365809916       -2.1081080800
N           1.3243909228       -0.0062366437       -1.4292325483
H           0.3990755837       -0.1653469332       -1.0544836038
CA          1.7085293699        1.3844243501       -1.6832384471
HA          2.7215213277        1.4059905956       -2.0880748954
CB          0.7767552479        1.9562997619       -2.7593382395
HB1         1.0561390224        2.9855611971       -2.9857736942
HB2         0.8577734824        1.3600513033       -3.6693567658
HB3        -0.2561271989        1.9332611044       -2.4104284932
C           1.7213877930        2.2398580728       -0.4006181797
O           0.9812961332        1.9788801492        0.5488641983
N           2.5503213399        3.2910630292       -0.3862847439
H           3.1296999724        3.4437654551       -1.1975035260
CH3         2.6861869490        4.2150256226        0.7384820675
HH31        1.7279915174        4.6989605895        0.9375400223
HH32        3.4333622677        4.9773764059        0.5127845813
HH33        2.9932564103        3.6663141718        1.6312666639
          52
Energy of minimum      3=    -10.07826592     first found at step      877 after               448454 function calls
HH31        2.8927785273       -1.5128357963        1.4218824429
CH3         2.6127987614       -0.4914359071        1.6780409031
HH32        2.6182156002        0.1133522330        0.7745442122
HH33        3.3195178184       -0.0899110295        2.4007786480
C           1.2272709356       -0.4962274328        2.2777056243
O           0.6310651931       -1.5543463866        2.4381103008
N           0.7067220742        0.6883233480        2.5986806613
H           1.2370725460        1.5123020708        2.3725789057
CA         -0.5714853970        0.8660868115        3.3015045392
HA         -0.5166036422        0.3310419127        4.2511225174
CB         -0.7394112278        2.3611410092        3.6001213767
HB1         0.1026630079        2.7209065217        4.1923813880
HB2        -0.7989839856        2.9247275030        2.6678113706
HB3        -1.6589485263        2.5159703304        4.1669023362
C          -1.7997298221        0.3060501666        2.5500472078
O          -2.8098856906       -0.0039191833        3.1753840796
N          -1.7031579019        0.1426445964        1.2285114475
H          -0.8589426114        0.4777891678        0.7762514854
CA         -2.6623457654       -0.5810748767        0.3921985402
HA         -3.3262959470       -1.1637752649        1.0329791138
CB         -3.5140485649        0.4450996231       -0.3698638785
HB1        -4.2660397355       -0.0721375275       -0.9669539991
HB2        -2.8796226389        1.0391273015       -1.0291012127
HB3        -4.0183623140        1.1036819130        0.3383731135
C          -1.9272034797       -1.5879708073       -0.5195429711
O          -2.2189677641       -1.6861348487       -1.7112270264
N          -0.8906834933       -2.2479788219        0.0198455889
H          -0.7392174534       -2.1029068448        1.0128308861
CA          0.2495108887       -2.8579234122       -0.6859050485
HA          0.9235626334       -3.2264529936        0.0890881316
CB         -0.1980702788       -4.0891447826       -1.4874167805
HB1        -0.7446653987       -4.7742306954       -0.8384804152
HB2        -0.8383542736       -3.7929900931       -2.3186104022
HB3         0.6790403424       -4.6011672865       -1.8845145077
C           1.0843511445       -1.8464593803       -1.5026654776
O           2.3064928020       -1.8067754739       -1.3750074207
N           0.4361814094       -0.9589070055       -2.2586159595
H          -0.5681790557       -1.0706376668       -2.3389889729
CA          1.0129444547        0.3096401682       -2.6880135812
HA          2.0005916520        0.1148046626       -3.1094135546
CB          0.1246658047        0.8991034299       -3.7904619511
HB1         0.5554529394        1.8310479253       -4.1573656463
HB2        -0.8736173907        1.0976133385       -3.3960860215
HB3         0.0477626943        0.1941318437       -4.6195252741
C           1.1812653841        1.2815093800       -1.4982766719
O           0.4620541916        1.2020230063       -0.4972957948
N           2.1283420417        2.2200830082       -1.6177104796
H           2.6816068916        2.2217971619       -2.4608744348
CH3         2.4207374844        3.2315000995       -0.6034484395
HH31        3.0844240658        3.9941738775       -1.0139377585
HH32        1.4935164158        3.7062489640       -0.2750715725
HH33        2.9022146541        2.7634221429        0.2567004322
          52
Energy of minimum      4=    -9.795918823     first found at step      305 after               158450 function calls
HH31       -3.5503007565        1.5008674903       -1.1863153427
CH3        -2.5889557261        1.1804460160       -1.5828954728
HH32       -2.4519936694        0.1194307540       -1.3796607576
HH33       -2.5572286022        1.3572516658       -2.6566461824
C          -1.4878073271        1.9664475948       -0.9125745977
O          -0.6950760064        2.6174500468       -1.5881427968
N          -1.4067634949        1.8862004447        0.4122685217
H          -1.9863437148        1.1951734662        0.8768855232
CA         -0.3632826547        2.5394346657        1.2014038383
HA         -0.2926106354        3.5856235580        0.9005999585
CB         -0.7686540964        2.4907192622        2.6804733734
HB1        -0.8798005982        1.4535309745        3.0028411082
HB2        -1.7144796627        3.0142595068        2.8236753145
HB3         0.0000608712        2.9697573562        3.2876005044
C           0.9888680992        1.8571803265        0.9304802990
O           1.2317484943        0.7511576707        1.4042929507
N           1.8326855136        2.4749876603        0.0940613385
H           1.5432641240        3.3639831100       -0.2831129364
CA          2.9563503278        1.7919762160       -0.5651198198
HA          3.2949105747        2.4442352280       -1.3702706448
CB          4.1356049728        1.6491739077        0.4111926160
HB1         3.8712868809        0.9699593676        1.2228835327
HB2         4.3986568617        2.6224864237        0.8256850871
HB3         4.9988620061        1.2416316957       -0.1162782156
C           2.5137247840        0.4767163829       -1.2563619524
O           3.1606871545       -0.5594195302       -1.1360165164
N           1.3631720778        0.5299163698       -1.9415593742
H           0.8897177605        1.4253715394       -1.9648404973
CA          0.6196190631       -0.5944655938       -2.5249228475
HA         -0.2692111006       -0.1515717713       -2.9743051423
CB          1.4114142945       -1.2032778386       -3.6929869998
HB1         2.2917048750       -1.7265922187       -3.3181050680
HB2         1.7229014226       -0.4190431591       -4.3833300685
HB3         0.7830027450       -1.9165391814       -4.2277135312
C           0.0577178357       -1.6459981553       -1.5362951792
O          -0.6691481821       -2.5397094435       -1.9685683078
N           0.2972059879       -1.5323873299       -0.2247738856
H           0.8948550069       -0.7870643940        0.1111758340
CA         -0.3154586832       -2.4062130812        0.7766201072
HA         -0.3474850137       -3.4153145967        0.3626549997
CB          0.5766713301       -2.4576777025        2.0229687865
HB1         0.1955709804       -3.2044098949        2.7195579751
HB2         0.5837627620       -1.4862565423        2.5178310696
HB3         1.5960581507       -2.7230576899        1.7388379082
C          -1.7656675439       -1.9957166418        1.1117428509
O          -2.1179715232       -0.8134222674        1.1137336237
N          -2.6085714192       -2.9856879629        1.4312672900
H          -2.2552795497       -3.9291661644        1.3988458613
CH3        -4.0124182740       -2.7871575473        1.7862021242
HH31       -4.0843957898       -2.1170753440        2.6452018590
HH32       -4.4779092688       -3.7419812782        2.0343469767
HH33       -4.5432716640       -2.3361633711        0.9454649045
          52
Energy of minimum      5=    -8.620365805     first found at step      605 after               316582 function calls
HH31       -1.8716827265       -0.4294623842        3.7601024993
CH3        -1.7964208899       -0.7170421644        2.7139439630
HH32       -0.7975804127       -1.0993051165        2.5112106015
HH33       -2.5273349814       -1.4936254924        2.4936177982
C          -2.0629028100        0.4868391005        1.8431988473
O          -3.0713280875        0.5436958930        1.1474133993
N          -1.1513522652        1.4555983388        1.8662522528
H          -0.2992822646        1.2775184283        2.3750927273
CA         -1.2569302336        2.7238500912        1.1374118716
HA         -2.2979095658        3.0498337982        1.1706534570
CB         -0.4187061232        3.7750923138        1.8802369368
HB1        -0.5244840191        4.7424495296        1.3873847400
HB2        -0.7625381064        3.8648973400        2.9112880169
HB3         0.6336407538        3.4868811941        1.8721606280
C          -0.8870997119        2.5680738904       -0.3553183780
O           0.0347401366        3.2178898260       -0.8487955273
N          -1.5705721315        1.6503787391       -1.0516954204
H          -2.3139041660        1.1898688445       -0.5355690538
CA         -1.2047175360        1.0378212279       -2.3398102707
HA         -1.9641382996        0.2819862858       -2.5447062733
CB         -1.3049432118        2.0646581058       -3.4774850867
HB1        -2.2911068892        2.5302427812       -3.4702757732
HB2        -1.1574821262        1.5625560080       -4.4342648160
HB3        -0.5431628614        2.8365547355       -3.3642368352
C           0.1349124931        0.2702912854       -2.3057210093
O           0.1739564565       -0.9125388697       -2.6466411037
N           1.2069910560        0.8754793536       -1.7896418242
H           1.1018200134        1.8452060992       -1.5106377052
CA          2.3420734677        0.1361603084       -1.2491475081
HA          2.7705167192       -0.4788592507       -2.0418257338
CB          3.4045810934        1.1346675850       -0.7752544540
HB1         3.7311155565        1.7534694484       -1.6120442385
HB2         4.2635042932        0.5959188154       -0.3740263574
HB3         2.9907062222        1.7763448624        0.0049286550
C           1.8513367695       -0.7799894196       -0.1099564350
O           1.2061405886       -0.3142845766        0.8297185898
N           2.1182981546       -2.0854897842       -0.2310834603
H           2.6502085821       -2.3770070231       -1.0348117015
CA          1.5358644534       -3.1470217786        0.6034526082
HA          1.8275949867       -4.0891081293        0.1391657931
CB          2.1942608922       -3.1355512775        1.9933451531
HB1         1.8790083087       -4.0154512250        2.5557479332
HB2         3.2798847114       -3.1502659835        1.8947647724
HB3         1.8923716507       -2.2434566454        2.5432413410
C          -0.0160381302       -3.1936937571        0.6280577080
O          -0.5991860238       -3.7523736799        1.5549904479
N          -0.6883554994       -2.6334409508       -0.3897538030
H          -0.1551415876       -2.1814559437       -1.1231860673
CH3        -2.1439363439       -2.6273296444       -0.5250736830
HH31       -2.5684195354       -1.8075767258        0.0549846128
HH32       -2.4179310118       -2.5015089040       -1.5732906010
HH33       -2.5589398079       -3.5683855030       -0.1581122336
          52
Energy of minimum      6=    -8.393452422     first found at step      459 after               245323 function calls
HH31       -5.6346482365        0.5033551025        2.2280184383
CH3        -4.6368395101        0.1638013970        1.9554927838
HH32       -4.7028982959       -0.6128058292        1.1971297228
HH33       -4.1255250349       -0.2261352824        2.8343625549
C          -3.8529347876        1.3295112485        1.4006097122
O          -4.4083741219        2.4002153094        1.1875112653
N          -2.5627739022        1.1140808874        1.1662924454
H          -2.1914646484        0.1947855723        1.3821195639
CA         -1.6212248951        2.1101160755        0.6549515262
HA         -2.1768787844        2.9700422116        0.2775579960
CB         -0.7561163104        2.5813798249        1.8337478580
HB1        -0.1762393379        1.7452519215        2.2253510807
HB2        -0.0772471732        3.3724284468        1.5158088866
HB3        -1.3977740943        2.9706450311        2.6257876492
C          -0.7772579910        1.5630862509       -0.5154813414
O          -0.8984638179        0.4028561043       -0.9109322473
N           0.1018844201        2.3985361004       -1.0803785430
H           0.1918831761        3.3288505410       -0.7067028349
CA          1.0390091479        1.9780863361       -2.1229695584
HA          0.4598520979        1.6199173278       -2.9755133551
CB          1.8596784042        3.1915112709       -2.5763515093
HB1         2.5404164107        2.8959900659       -3.3755659360
HB2         1.1956483757        3.9729564942       -2.9480533176
HB3         2.4441233982        3.5796216560       -1.7402541896
C           1.9342827274        0.8245184006       -1.6243053987
O           2.5516170290        0.9326057458       -0.5654470559
N           1.9768956796       -0.2764997254       -2.3850992938
H           1.4324133070       -0.2503743730       -3.2316249518
CA          2.5052810218       -1.6005516074       -2.0133676817
HA          2.2904957790       -2.2617015222       -2.8540429741
CB          4.0359969837       -1.5478353017       -1.8975934091
HB1         4.3328054523       -0.9347365778       -1.0458899964
HB2         4.4648723439       -1.1295789168       -2.8087443471
HB3         4.4240590640       -2.5571897424       -1.7549104773
C           1.8224331768       -2.2698757026       -0.7963238608
O           1.4213488509       -3.4281276909       -0.8915639524
N           1.6271144128       -1.5572679024        0.3151831793
H           1.9697754706       -0.6033322687        0.3164409905
CA          0.9146682801       -2.0183779667        1.5095000932
HA          1.1736650652       -3.0653097993        1.6750120135
CB          1.4355978312       -1.2209183968        2.7139042979
HB1         2.5135599567       -1.3552576268        2.8101070848
HB2         1.2156176413       -0.1614186404        2.5829474883
HB3         0.9520759005       -1.5747726004        3.6253327215
C          -0.6232099496       -1.9692193904        1.3369296446
O          -1.3338517580       -1.3254283330        2.1110726080
N          -1.1368066524       -2.6263452324        0.2908057875
H          -0.4796844080       -3.1183760511       -0.3049315108
CH3        -2.5470251651       -2.6174379545       -0.0893225330
HH31       -2.7353874453       -3.3847945526       -0.8411250430
HH32       -3.1694690412       -2.8106148172        0.7863737975
HH33       -2.8049760432       -1.6398655178       -0.5018558714
          52
Energy of minimum      7=    -8.038300661     first found at step      924 after               473729 function calls
HH31        2.2982739660        1.9881447460        0.6640348820
CH3         2.6213526429        1.2622118183        1.4086218462
HH32        3.1731408885        1.7688987495        2.1976397265
HH33        3.2554135426        0.5140313498        0.9354889306
C           1.4120483969        0.5834436264        2.0038127769
O           1.3635051095       -0.6412296766        2.0812910920
N           0.4195737271        1.3715879191        2.4132921304
H           0.4985273806        2.3636612136        2.2566486598
CA         -0.8540201553        0.8462711655        2.9066160886
HA         -0.6521202614        0.1983876946        3.7607488233
CB         -1.7284793081        2.0133193744        3.3801037011
HB1        -1.2160572942        2.5675761254        4.1673916103
HB2        -1.9389161422        2.6832186733        2.5442301135
HB3        -2.6716466215        1.6306783170        3.7717166891
C          -1.5435095997        0.0116678700        1.8112811953
O          -1.6588457534        0.4631031734        0.6753660577
N          -1.9529188297       -1.2219056509        2.1317030795
H          -1.8356477403       -1.5298841259        3.0829441999
CA         -2.4275006421       -2.2070178476        1.1464650266
HA         -2.4330857091       -3.1746471021        1.6483724283
CB         -3.8869575370       -1.8975828651        0.7744420600
HB1        -4.2810048354       -2.6942191149        0.1419570528
HB2        -3.9402415027       -0.9568180129        0.2243443502
HB3        -4.4975800273       -1.8257233720        1.6746536287
C          -1.4779780331       -2.3871674181       -0.0691194050
O          -1.9277020832       -2.6062770674       -1.1899469342
N          -0.1617515337       -2.2715362565        0.1597302393
H           0.1289832578       -2.0318338997        1.0987301367
CA          0.9062234866       -2.2664658669       -0.8477439234
HA          1.8271267634       -2.1057809618       -0.2863892184
CB          1.0454609398       -3.6589752905       -1.4844405839
HB1         1.1125684289       -4.4207616643       -0.7074965439
HB2         1.9492943080       -3.6948146870       -2.0936964580
HB3         0.1859642214       -3.8669475958       -2.1227320702
C           0.8799674078       -1.0985045546       -1.8634723425
O           1.6728824177       -1.0932656708       -2.8063098886
N           0.0544139445       -0.0655569768       -1.6532532981
H          -0.5918599349       -0.1070409924       -0.8736475284
CA          0.0418659980        1.1579460429       -2.4589093745
HA          0.1476451014        0.8745228882       -3.5073030815
CB         -1.3271527537        1.8369861450       -2.3094216982
HB1        -1.4660631896        2.1816786926       -1.2843622598
HB2        -2.1211197498        1.1336933110       -2.5638695369
HB3        -1.3830311427        2.6961066516       -2.9783603709
C           1.2354877456        2.0795093035       -2.1161249332
O           1.0819555934        3.1319883957       -1.4959898274
N           2.4474076457        1.6509839826       -2.4886632423
H           2.4886844984        0.7355585859       -2.9269081753
CH3         3.6959077017        2.3789886833       -2.2746291285
HH31        3.6041726982        3.3911637528       -2.6736142305
HH32        3.9101193412        2.4412720552       -1.2069086252
HH33        4.5172232266        1.8673563644       -2.7783138462
          52
Energy of minimum      8=    -7.994599305     first found at step      984 after               507803 function calls
HH31       -2.2976722981        0.5072899133        3.3231603620
CH3        -1.6763470408       -0.3628428838        3.1222501859
HH32       -1.4069263658       -0.8532580787        4.0557113737
HH33       -2.2316565573       -1.0638487869        2.4978995590
C          -0.4228938252        0.0598039890        2.3951228225
O          -0.1784839423       -0.3888887605        1.2837750944
N           0.3636420332        0.9440621992        3.0142046615
H           0.0861885240        1.2403842550        3.9357950555
CA          1.6715875140        1.4091004476        2.5171935578
HA          1.9201146173        2.3076107137        3.0824702554
CB          2.7341113335        0.3564632280        2.8728073640
HB1         2.5563041707       -0.5570173826        2.3028426817
HB2         2.6977130937        0.1297009970        3.9387390465
HB3         3.7271974559        0.7361256313        2.6281881694
C           1.6981320761        1.8461440936        1.0279867303
O           2.7129282708        1.6949052907        0.3511974297
N           0.5699351810        2.3579072290        0.5167116883
H          -0.2027316180        2.4278576404        1.1571813449
CA          0.2377388107        2.5703357364       -0.9007706129
HA         -0.7954937208        2.9193686052       -0.9214344685
CB          1.0812828762        3.7166083452       -1.4781702807
HB1         0.7323039874        3.9526011980       -2.4843422807
HB2         0.9832918156        4.6043237158       -0.8526051030
HB3         2.1315666436        3.4275891008       -1.5309594586
C           0.2447619880        1.3013569906       -1.7853880232
O          -0.7294459399        1.0672084400       -2.4966323827
N           1.2806540540        0.4595088365       -1.7196165696
H           2.0423852145        0.7086293225       -1.0983104644
CA          1.4388209750       -0.7420484562       -2.5492291882
HA          1.3789757727       -0.4449963570       -3.5975155565
CB          2.8417332861       -1.3039205081       -2.2884440924
HB1         3.5941408629       -0.5464631759       -2.5117730269
HB2         2.9341582733       -1.6096900574       -1.2451679464
HB3         3.0116683076       -2.1701237530       -2.9296732237
C           0.3548475017       -1.8223507700       -2.3318324898
O           0.1267796401       -2.6441032882       -3.2153055139
N          -0.3288683646       -1.8025183805       -1.1847605691
H          -0.0504286667       -1.1300693552       -0.4795173506
CA         -1.5011752557       -2.6194135584       -0.8652730127
HA         -1.7997712783       -3.1689247997       -1.7592136144
CB         -1.1021868243       -3.6476531813        0.2034409048
HB1        -1.9433965237       -4.3113628493        0.4066077843
HB2        -0.2614032361       -4.2433580203       -0.1536138920
HB3        -0.8200592691       -3.1366970950        1.1244828090
C          -2.7172703377       -1.7468293199       -0.4697840109
O          -3.5640745804       -2.1645500366        0.3198537787
N          -2.7910845699       -0.5106603380       -0.9860915893
H          -2.0623063493       -0.2252947405       -1.6321952836
CH3        -3.8625108265        0.4407740627       -0.7059001591
HH31       -3.8947436123        0.6547553481        0.3633503839
HH32       -3.6919494239        1.3647386414       -1.2602208924
HH33       -4.8200838528        0.0117299621       -1.0072319871
          52
Energy of minimum      9=    -7.859076307     first found at step      680 after               350568 function calls
HH31       -1.6759148816        5.7445679075       -1.4167602654
CH3        -0.6101389653        5.9381705399       -1.3098654238
HH32       -0.2021614801        6.2661151105       -2.2655165595
HH33       -0.4463139457        6.7121947684       -0.5622218106
C           0.0934853909        4.6721050337       -0.8840926411
O           0.9590198450        4.1763148326       -1.5938319217
N          -0.2954649417        4.1247989490        0.2660645420
H          -1.0296038959        4.5844431842        0.7797171278
CA          0.3237733248        2.9474638908        0.8885601489
HA          1.4051146446        3.0558411307        0.7876450213
CB          0.0024438773        2.9767762454        2.3907457790
HB1         0.5308269108        2.1666321177        2.8958147889
HB2         0.3224832809        3.9250247778        2.8244158558
HB3        -1.0697183736        2.8479563637        2.5466450575
C          -0.0377327847        1.6036600661        0.2046732129
O          -0.3167348082        0.6095544945        0.8722304213
N          -0.0351069654        1.5554253407       -1.1318715236
H           0.2554600760        2.3931852700       -1.6253234616
CA         -0.5102052281        0.4195129521       -1.9319919895
HA         -1.5612017055        0.2486974539       -1.6922602589
CB         -0.4154545279        0.8168818349       -3.4100399703
HB1        -1.0004347001        1.7193277085       -3.5924151763
HB2        -0.8109467818        0.0106518008       -4.0299801306
HB3         0.6246703473        0.9986184022       -3.6849500730
C           0.2276725201       -0.9101871803       -1.6616828210
O          -0.3339978141       -1.9780312143       -1.8904884106
N           1.4470342781       -0.8622650939       -1.1126375382